/*--------------------------------*- C++ -*----------------------------------*\
| =========                 |                                                 |
| \\      /  F ield         | foam-extend: Open Source CFD                    |
|  \\    /   O peration     | Version:     4.0                                |
|   \\  /    A nd           | Web:         http://www.foam-extend.org         |
|    \\/     M anipulation  |                                                 |
\*---------------------------------------------------------------------------*/
FoamFile
{
    version     2.0;
    format      ascii;
    class       volVectorField;
    location    "1";
    object      D;
}
// * * * * * * * * * * * * * * * * * * * * * * * * * * * * * * * * * * * * * //

dimensions      [0 1 0 0 0 0 0];

internalField   nonuniform List<vector> 
160
(
(-9.98585e-06 -9.35965e-06 0)
(-2.60867e-05 -3.21554e-05 0)
(-4.38085e-05 -7.99139e-05 0)
(-6.0275e-05 -0.000150202 0)
(-7.6562e-05 -0.0002423 0)
(-9.23248e-05 -0.000355796 0)
(-0.000107662 -0.000490012 0)
(-0.000122547 -0.000644381 0)
(-0.000136987 -0.000818298 0)
(-0.000150981 -0.00101117 0)
(-0.000164527 -0.00122241 0)
(-0.000177629 -0.0014514 0)
(-0.00019028 -0.00169757 0)
(-0.000202495 -0.00196032 0)
(-0.000214242 -0.00223905 0)
(-0.000225578 -0.00253314 0)
(-0.000236401 -0.00284208 0)
(-0.00024682 -0.00316512 0)
(-0.00025673 -0.00350171 0)
(-0.000265947 -0.00385149 0)
(-0.000274914 -0.00421349 0)
(-0.000283309 -0.00458699 0)
(-0.000291338 -0.00497148 0)
(-0.000298881 -0.00536634 0)
(-0.000305999 -0.00577097 0)
(-0.000312661 -0.00618479 0)
(-0.000318881 -0.0066072 0)
(-0.000324653 -0.0070376 0)
(-0.000329979 -0.00747541 0)
(-0.00033486 -0.00792001 0)
(-0.000339294 -0.00837083 0)
(-0.000343282 -0.00882726 0)
(-0.000346823 -0.00928871 0)
(-0.000349919 -0.00975459 0)
(-0.000352569 -0.0102243 0)
(-0.000354772 -0.0106972 0)
(-0.000356531 -0.0111728 0)
(-0.000357838 -0.0116504 0)
(-0.000358716 -0.0121295 0)
(-0.000359113 -0.0126095 0)
(-3.03948e-06 -6.46553e-06 0)
(-8.68378e-06 -2.91606e-05 0)
(-1.4569e-05 -7.6982e-05 0)
(-2.00739e-05 -0.000147382 0)
(-2.55034e-05 -0.000239541 0)
(-3.07588e-05 -0.000353121 0)
(-3.5871e-05 -0.000487411 0)
(-4.0833e-05 -0.000641858 0)
(-4.56461e-05 -0.000815852 0)
(-5.03109e-05 -0.0010088 0)
(-5.48257e-05 -0.00122011 0)
(-5.91942e-05 -0.00144919 0)
(-6.34089e-05 -0.00169544 0)
(-6.74846e-05 -0.00195826 0)
(-7.13926e-05 -0.00223706 0)
(-7.51885e-05 -0.00253124 0)
(-7.87786e-05 -0.00284026 0)
(-8.23192e-05 -0.00316336 0)
(-8.56495e-05 -0.00350002 0)
(-8.83576e-05 -0.00384995 0)
(-9.14198e-05 -0.00421201 0)
(-9.41693e-05 -0.00458558 0)
(-9.6861e-05 -0.00497014 0)
(-9.9366e-05 -0.00536507 0)
(-0.000101742 -0.00576979 0)
(-0.000103961 -0.00618368 0)
(-0.000106035 -0.00660617 0)
(-0.000107958 -0.00703665 0)
(-0.000109734 -0.00747453 0)
(-0.000111361 -0.00791921 0)
(-0.000112839 -0.0083701 0)
(-0.000114168 -0.00882661 0)
(-0.000115349 -0.00928814 0)
(-0.000116381 -0.00975409 0)
(-0.000117264 -0.0102239 0)
(-0.000117998 -0.0106969 0)
(-0.000118584 -0.0111726 0)
(-0.000119017 -0.0116503 0)
(-0.000119305 -0.0121294 0)
(-0.00011941 -0.0126095 0)
(3.03954e-06 -6.46554e-06 0)
(8.68399e-06 -2.91606e-05 0)
(1.45694e-05 -7.6982e-05 0)
(2.00744e-05 -0.000147382 0)
(2.5504e-05 -0.000239541 0)
(3.07595e-05 -0.000353121 0)
(3.5872e-05 -0.000487411 0)
(4.08339e-05 -0.000641858 0)
(4.56475e-05 -0.000815852 0)
(5.03117e-05 -0.0010088 0)
(5.48282e-05 -0.00122011 0)
(5.91935e-05 -0.00144919 0)
(6.34149e-05 -0.00169544 0)
(6.74763e-05 -0.00195826 0)
(7.1411e-05 -0.00223706 0)
(7.51365e-05 -0.00253123 0)
(7.88274e-05 -0.00284022 0)
(8.19566e-05 -0.00316336 0)
(8.57928e-05 -0.0035002 0)
(8.94109e-05 -0.00384999 0)
(9.20682e-05 -0.00421198 0)
(9.49466e-05 -0.00458558 0)
(9.75729e-05 -0.00497014 0)
(0.000100105 -0.00536508 0)
(0.000102468 -0.00576979 0)
(0.000104692 -0.00618368 0)
(0.000106764 -0.00660617 0)
(0.000108689 -0.00703665 0)
(0.000110464 -0.00747453 0)
(0.000112091 -0.00791921 0)
(0.000113569 -0.0083701 0)
(0.000114898 -0.00882661 0)
(0.000116079 -0.00928814 0)
(0.000117111 -0.00975409 0)
(0.000117994 -0.0102239 0)
(0.000118728 -0.0106969 0)
(0.000119314 -0.0111726 0)
(0.000119747 -0.0116503 0)
(0.000120035 -0.0121294 0)
(0.00012014 -0.0126095 0)
(9.98592e-06 -9.35968e-06 0)
(2.60869e-05 -3.21554e-05 0)
(4.38089e-05 -7.99139e-05 0)
(6.02755e-05 -0.000150202 0)
(7.65626e-05 -0.0002423 0)
(9.23255e-05 -0.000355796 0)
(0.000107663 -0.000490012 0)
(0.000122548 -0.000644381 0)
(0.000136988 -0.000818298 0)
(0.000150981 -0.00101117 0)
(0.000164529 -0.00122241 0)
(0.000177628 -0.00145141 0)
(0.000190286 -0.00169757 0)
(0.000202487 -0.00196032 0)
(0.000214265 -0.00223904 0)
(0.000225549 -0.00253314 0)
(0.000236508 -0.00284203 0)
(0.000246797 -0.00316514 0)
(0.000257277 -0.00350201 0)
(0.000266709 -0.00385158 0)
(0.000275569 -0.00421345 0)
(0.000284068 -0.004587 0)
(0.000292049 -0.00497148 0)
(0.00029962 -0.00536634 0)
(0.000306724 -0.00577097 0)
(0.000313392 -0.00618479 0)
(0.00031961 -0.0066072 0)
(0.000325383 -0.0070376 0)
(0.000330709 -0.00747541 0)
(0.000335589 -0.00792001 0)
(0.000340024 -0.00837083 0)
(0.000344012 -0.00882726 0)
(0.000347553 -0.00928871 0)
(0.000350649 -0.00975459 0)
(0.000353299 -0.0102243 0)
(0.000355502 -0.0106972 0)
(0.000357261 -0.0111728 0)
(0.000358568 -0.0116504 0)
(0.000359446 -0.0121295 0)
(0.000359843 -0.0126095 0)
)
;

boundaryField
{
    top
    {
        type            solidTraction;
        traction        uniform (0 0 0);
        pressure        uniform 0;
        secondOrder     false;
        setEffectiveTraction false;
        relaxationFactor 1;
        value           nonuniform List<vector> 
40
(
(1.51753e-05 -1.12922e-05 3.05496e-20)
(3.49062e-05 -3.39673e-05 1.22346e-20)
(5.85647e-05 -8.17454e-05 -7.2851e-20)
(8.05737e-05 -0.000151957 6.0579e-20)
(0.000102262 -0.000244017 -1.71878e-20)
(0.00012329 -0.000357462 -1.35602e-33)
(0.000143736 -0.000491631 1.50473e-19)
(0.000163584 -0.000645952 -3.92693e-20)
(0.000182837 -0.000819822 4.48042e-20)
(0.000201495 -0.00101265 1.59383e-19)
(0.000219559 -0.00122383 -1.42877e-20)
(0.000237024 -0.00145279 -1.89542e-19)
(0.0002539 -0.00169891 -7.59572e-20)
(0.00027017 -0.0019616 -5.1428e-21)
(0.000285869 -0.00224027 6.71355e-20)
(0.000300922 -0.00253434 -1.79286e-19)
(0.000315508 -0.00284316 -9.22399e-20)
(0.000329295 -0.00316626 1.78731e-19)
(0.000343082 -0.00350308 9.08823e-20)
(0.000355639 -0.00385256 9.28199e-20)
(0.000367496 -0.00421438 -3.17275e-19)
(0.000378821 -0.00458788 -5.29516e-19)
(0.000389466 -0.00497231 2.14643e-19)
(0.000399557 -0.00536712 4.35941e-19)
(0.000409031 -0.00577171 1.07676e-19)
(0.000417921 -0.00618548 -4.14533e-21)
(0.000426211 -0.00660784 -1.2478e-19)
(0.000433909 -0.0070382 -4.76107e-21)
(0.00044101 -0.00747595 -5.47259e-21)
(0.000447517 -0.00792051 1.22267e-19)
(0.000453429 -0.00837128 -9.03161e-22)
(0.000458747 -0.00882766 -3.86182e-19)
(0.000463469 -0.00928907 1.28692e-19)
(0.000467597 -0.0097549 -3.08061e-21)
(0.00047113 -0.0102246 -3.94017e-19)
(0.000474068 -0.0106974 2.64118e-19)
(0.000476412 -0.011173 -1.64247e-21)
(0.000478156 -0.0116506 1.33237e-19)
(0.00047933 -0.0121296 -8.19875e-22)
(0.000479902 -0.0126095 -4.00001e-19)
)
;
        gradient        nonuniform List<vector> 
40
(
(0.000415151 -0.000154598 2.44397e-18)
(0.000705542 -0.000144955 9.78765e-19)
(0.00118047 -0.000146523 -5.82808e-18)
(0.00162386 -0.000140373 4.84632e-18)
(0.00205594 -0.000137357 -1.37503e-18)
(0.00247712 -0.000133285 -1.08482e-31)
(0.00288584 -0.000129525 1.20379e-17)
(0.00328286 -0.000125682 -3.14154e-18)
(0.00366791 -0.000121858 3.58434e-18)
(0.00404107 -0.000118033 1.27507e-17)
(0.00440233 -0.000114201 -1.14302e-18)
(0.00475168 -0.000110387 -1.51634e-17)
(0.00508913 -0.000106537 -6.07658e-18)
(0.00541465 -0.000102767 -4.11424e-19)
(0.00572826 -9.88367e-05 5.37084e-18)
(0.00602986 -9.53267e-05 -1.43429e-17)
(0.00631998 -9.10643e-05 -7.37919e-18)
(0.00659983 -8.90081e-05 1.42985e-17)
(0.0068644 -8.53353e-05 7.27058e-18)
(0.00711443 -7.83968e-05 7.42559e-18)
(0.00735416 -7.43972e-05 -2.5382e-17)
(0.00758023 -7.06263e-05 -4.23613e-17)
(0.00779337 -6.66482e-05 1.71714e-17)
(0.00799495 -6.28946e-05 3.48753e-17)
(0.00818454 -5.90266e-05 8.61407e-18)
(0.00836228 -5.52229e-05 -3.31626e-19)
(0.00852811 -5.13879e-05 -9.98243e-18)
(0.00868205 -4.75689e-05 -3.80886e-19)
(0.00882408 -4.37421e-05 -4.37808e-19)
(0.00895422 -3.99193e-05 9.78137e-18)
(0.00907247 -3.60946e-05 -7.22529e-20)
(0.00917881 -3.22709e-05 -3.08946e-17)
(0.00927326 -2.84469e-05 1.02954e-17)
(0.00935581 -2.46234e-05 -2.46449e-19)
(0.00942647 -2.07984e-05 -3.15213e-17)
(0.00948523 -1.69795e-05 2.11294e-17)
(0.00953209 -1.31409e-05 -1.31398e-19)
(0.00956704 -9.36481e-06 1.06589e-17)
(0.00959077 -5.46355e-06 -6.559e-20)
(0.00960467 -1.91149e-06 -3.20001e-17)
)
;
    }
    left
    {
        type            fixedDisplacement;
        value           uniform (0 0 0);
    }
    right
    {
        type            solidTraction;
        traction        uniform (0 -1e+06 0);
        pressure        uniform 0;
        secondOrder     false;
        setEffectiveTraction false;
        relaxationFactor 1;
        value           nonuniform List<vector> 4((-0.000359138 -0.0128498 0) (-0.000119424 -0.0128494 -1.06427e-18) (0.000120154 -0.0128494 1.84874e-22) (0.000359868 -0.0128498 1.06578e-18));
        gradient        nonuniform List<vector> 4((-9.74635e-07 -0.00960939 0) (-5.64983e-07 -0.00959806 -4.25707e-17) (5.65056e-07 -0.00959806 7.39495e-21) (9.74602e-07 -0.00960939 4.26314e-17));
    }
    bottom
    {
        type            solidTraction;
        traction        uniform (0 0 0);
        pressure        uniform 0;
        secondOrder     false;
        setEffectiveTraction false;
        relaxationFactor 1;
        value           nonuniform List<vector> 
40
(
(-1.51752e-05 -1.12921e-05 8.03741e-21)
(-3.4906e-05 -3.39673e-05 -7.34811e-21)
(-5.85644e-05 -8.17454e-05 -5.82074e-20)
(-8.05732e-05 -0.000151957 1.07711e-19)
(-0.000102261 -0.000244016 4.33136e-20)
(-0.000123289 -0.000357462 -1.44178e-19)
(-0.000143735 -0.000491631 6.48211e-21)
(-0.000163583 -0.000645952 -6.28952e-21)
(-0.000182836 -0.000819822 6.0983e-21)
(-0.000201494 -0.00101265 -5.90662e-21)
(-0.000219556 -0.00122383 -2.99757e-19)
(-0.000237025 -0.00145278 8.28505e-21)
(-0.000253894 -0.00169891 3.58461e-19)
(-0.000270178 -0.0019616 1.45149e-19)
(-0.000285845 -0.00224028 -1.56517e-19)
(-0.000300957 -0.00253433 1.67374e-19)
(-0.000315398 -0.00284321 3.41728e-19)
(-0.000329274 -0.00316621 -3.70548e-19)
(-0.000342526 -0.00350273 -4.15037e-21)
(-0.00035492 -0.00385247 1.95622e-19)
(-0.000366851 -0.00421442 -6.12426e-19)
(-0.000378057 -0.00458787 -7.29304e-19)
(-0.000388756 -0.00497232 2.27996e-19)
(-0.000398818 -0.00536712 5.59474e-19)
(-0.000408306 -0.00577171 2.27167e-19)
(-0.000417189 -0.00618548 -2.321e-19)
(-0.000425482 -0.00660784 -8.22029e-19)
(-0.000433178 -0.0070382 2.49306e-19)
(-0.000440281 -0.00747595 3.69565e-19)
(-0.000446787 -0.00792051 3.99533e-21)
(-0.0004527 -0.00837128 2.54521e-19)
(-0.000458017 -0.00882766 -2.53148e-19)
(-0.000462739 -0.00928907 1.42359e-21)
(-0.000466867 -0.0097549 1.84835e-21)
(-0.0004704 -0.0102246 2.63719e-19)
(-0.000473338 -0.0106974 5.27811e-19)
(-0.000475682 -0.011173 -6.61421e-19)
(-0.000477426 -0.0116506 -2.65305e-19)
(-0.0004786 -0.0121296 3.99706e-19)
(-0.000479172 -0.0126095 0)
)
;
        gradient        nonuniform List<vector> 
40
(
(-0.00041515 -0.000154597 6.42993e-19)
(-0.000705542 -0.000144954 -5.87848e-19)
(-0.00118047 -0.000146521 -4.65659e-18)
(-0.00162386 -0.000140372 8.61688e-18)
(-0.00205594 -0.000137356 3.46509e-18)
(-0.00247712 -0.000133284 -1.15342e-17)
(-0.00288584 -0.000129524 5.18569e-19)
(-0.00328286 -0.00012568 -5.03161e-19)
(-0.00366791 -0.000121858 4.87864e-19)
(-0.00404108 -0.000118028 -4.7253e-19)
(-0.00440233 -0.000114208 -2.39806e-17)
(-0.00475168 -0.00011037 6.62804e-19)
(-0.00508912 -0.000106566 2.86769e-17)
(-0.00541471 -0.000102695 1.16119e-17)
(-0.00572827 -9.89294e-05 -1.25213e-17)
(-0.00603029 -9.49665e-05 1.33899e-17)
(-0.00631978 -9.1036e-05 2.73382e-17)
(-0.00659633 -8.71232e-05 -2.96438e-17)
(-0.00686369 -8.19743e-05 -3.32029e-19)
(-0.00711783 -7.79309e-05 1.56498e-17)
(-0.00735499 -7.44061e-05 -4.89941e-17)
(-0.00757989 -7.03904e-05 -5.83443e-17)
(-0.00779343 -6.67405e-05 1.82396e-17)
(-0.00799491 -6.28333e-05 4.47579e-17)
(-0.00818456 -5.90541e-05 1.81734e-17)
(-0.00836228 -5.52079e-05 -1.8568e-17)
(-0.00852811 -5.13944e-05 -6.57624e-17)
(-0.00868205 -4.7565e-05 1.99445e-17)
(-0.00882408 -4.37434e-05 2.95652e-17)
(-0.00895422 -3.99181e-05 3.19626e-19)
(-0.00907247 -3.60947e-05 2.03617e-17)
(-0.00917881 -3.22705e-05 -2.02519e-17)
(-0.00927326 -2.84468e-05 1.13887e-19)
(-0.00935581 -2.46232e-05 1.47868e-19)
(-0.00942647 -2.07983e-05 2.10975e-17)
(-0.00948523 -1.69794e-05 4.22249e-17)
(-0.00953209 -1.31409e-05 -5.29137e-17)
(-0.00956704 -9.36484e-06 -2.12244e-17)
(-0.00959077 -5.46353e-06 3.19765e-17)
(-0.00960467 -1.91144e-06 0)
)
;
    }
    front
    {
        type            empty;
    }
    back
    {
        type            empty;
    }
}


// ************************************************************************* //
