/*--------------------------------*- C++ -*----------------------------------*\
| =========                 |                                                 |
| \\      /  F ield         | foam-extend: Open Source CFD                    |
|  \\    /   O peration     | Version:     4.0                                |
|   \\  /    A nd           | Web:         http://www.foam-extend.org         |
|    \\/     M anipulation  |                                                 |
\*---------------------------------------------------------------------------*/
FoamFile
{
    version     2.0;
    format      ascii;
    class       volScalarField;
    location    "1";
    object      epsilonEq;
}
// * * * * * * * * * * * * * * * * * * * * * * * * * * * * * * * * * * * * * //

dimensions      [0 0 0 0 0 0 0];

internalField   nonuniform List<scalar> 
160
(
0.000298659
0.000280244
0.000282369
0.000270652
0.000264815
0.000256958
0.000249714
0.000242303
0.000234938
0.000227556
0.000220192
0.000212796
0.000205463
0.000198004
0.000190735
0.000183123
0.000175448
0.000168164
0.000158542
0.000150068
0.000143379
0.000135731
0.000128706
0.000121189
0.00011391
0.000106502
9.91567e-05
9.17818e-05
8.44233e-05
7.70591e-05
6.97005e-05
6.23431e-05
5.49905e-05
4.7644e-05
4.03028e-05
3.29881e-05
2.56563e-05
1.85007e-05
1.1317e-05
6.2074e-06
0.000116916
0.000102972
0.000101657
9.79018e-05
9.55668e-05
9.28019e-05
9.01915e-05
8.75483e-05
8.49187e-05
8.22823e-05
7.96619e-05
7.70139e-05
7.44258e-05
7.17374e-05
6.92623e-05
6.65888e-05
6.43509e-05
6.23804e-05
5.40271e-05
5.1987e-05
5.27401e-05
4.93646e-05
4.72593e-05
4.45168e-05
4.20255e-05
3.94181e-05
3.68767e-05
3.43203e-05
3.17933e-05
2.92804e-05
2.67972e-05
2.43466e-05
2.19424e-05
1.96017e-05
1.73449e-05
1.52291e-05
1.32553e-05
1.16805e-05
1.04273e-05
8.44476e-06
0.000116918
0.000102974
0.000101659
9.79043e-05
9.5569e-05
9.28045e-05
9.0193e-05
8.75521e-05
8.49177e-05
8.22908e-05
7.96501e-05
7.70414e-05
7.43616e-05
7.1822e-05
6.88615e-05
6.66704e-05
6.14437e-05
6.26902e-05
3.95556e-05
5.68034e-05
5.02664e-05
4.99336e-05
4.69291e-05
4.46261e-05
4.19691e-05
3.94441e-05
3.68651e-05
3.43269e-05
3.17913e-05
2.92826e-05
2.67969e-05
2.43473e-05
2.19427e-05
1.96021e-05
1.7345e-05
1.52293e-05
1.32554e-05
1.16803e-05
1.04272e-05
8.44488e-06
0.000298662
0.000280247
0.000282371
0.000270654
0.000264818
0.000256961
0.000249715
0.000242307
0.000234936
0.000227565
0.00022018
0.000212828
0.000205407
0.000198142
0.000190549
0.000183789
0.000175368
0.000171561
0.00016545
0.000151421
0.000143263
0.000136195
0.000128524
0.000121308
0.000113857
0.000106531
9.91441e-05
9.17893e-05
8.44208e-05
7.70613e-05
6.97003e-05
6.2344e-05
5.49908e-05
4.76444e-05
4.0303e-05
3.29882e-05
2.56563e-05
1.85007e-05
1.13171e-05
6.20738e-06
)
;

boundaryField
{
    top
    {
        type            calculated;
        value           nonuniform List<scalar> 
40
(
0.000305354
0.000286309
0.000289405
0.000277259
0.000271302
0.000263259
0.000255831
0.000248241
0.000240688
0.000233134
0.000225565
0.000218031
0.000210427
0.000202981
0.000195218
0.000188285
0.000179866
0.000175805
0.000168551
0.000154846
0.000146946
0.000139498
0.000131641
0.000124227
0.000116587
0.000109074
0.000101499
9.39558e-05
8.63975e-05
7.88468e-05
7.12925e-05
6.37401e-05
5.6187e-05
4.86351e-05
4.108e-05
3.35371e-05
2.59553e-05
1.8497e-05
1.07914e-05
3.7755e-06
)
;
    }
    left
    {
        type            calculated;
        value           nonuniform List<scalar> 4(0.000321386 0.000105771 0.000105773 0.000321388);
    }
    right
    {
        type            calculated;
        value           nonuniform List<scalar> 4(7.74427e-06 7.58374e-06 7.58376e-06 7.74425e-06);
    }
    bottom
    {
        type            calculated;
        value           nonuniform List<scalar> 
40
(
0.000305352
0.000286307
0.000289402
0.000277256
0.0002713
0.000263256
0.00025583
0.000248237
0.000240689
0.000233124
0.000225578
0.000217998
0.000210484
0.000202839
0.000195401
0.000187574
0.00017981
0.000172082
0.000161912
0.000153926
0.000146964
0.000139032
0.000131823
0.000124105
0.000116641
0.000109044
0.000101512
9.39482e-05
8.64e-05
7.88445e-05
7.12927e-05
6.37392e-05
5.61868e-05
4.86347e-05
4.10798e-05
3.35369e-05
2.59553e-05
1.8497e-05
1.07913e-05
3.77539e-06
)
;
    }
    front
    {
        type            empty;
    }
    back
    {
        type            empty;
    }
}


// ************************************************************************* //
