/*--------------------------------*- C++ -*----------------------------------*\
| =========                 |                                                 |
| \\      /  F ield         | foam-extend: Open Source CFD                    |
|  \\    /   O peration     | Version:     4.0                                |
|   \\  /    A nd           | Web:         http://www.foam-extend.org         |
|    \\/     M anipulation  |                                                 |
\*---------------------------------------------------------------------------*/
FoamFile
{
    version     2.0;
    format      ascii;
    class       volSymmTensorField;
    location    "1";
    object      epsilon;
}
// * * * * * * * * * * * * * * * * * * * * * * * * * * * * * * * * * * * * * //

dimensions      [0 0 0 0 0 0 0];

internalField   nonuniform List<symmTensor> 
160
(
(-0.000360725 -3.43238e-05 -7.37809e-19 0.000135181 1.60747e-19 2.85546e-33)
(-0.000338227 -2.35645e-06 -1.55615e-18 0.000132372 -1.46962e-19 -1.30529e-33)
(-0.000341883 -2.72251e-06 1.84994e-18 0.000131898 -1.16415e-18 1.03397e-32)
(-0.000327535 -3.95313e-06 9.6976e-18 0.000126597 2.15422e-18 -4.78333e-32)
(-0.000320498 -3.39899e-06 -8.7442e-18 0.00012385 8.66273e-19 1.53881e-32)
(-0.000310996 -3.62048e-06 -6.17479e-18 0.000120154 -2.88356e-18 -2.56111e-32)
(-0.000302223 -3.5559e-06 6.39207e-18 0.000116771 1.29642e-19 -1.15145e-33)
(-0.000293253 -3.57583e-06 -7.27355e-18 0.000113302 -1.25791e-19 -1.11724e-33)
(-0.000284336 -3.57102e-06 8.12855e-18 0.000109857 1.21966e-19 -1.08328e-33)
(-0.0002754 -3.5723e-06 -8.95713e-18 0.000106404 -1.18133e-19 -1.04923e-33)
(-0.000266485 -3.57182e-06 9.01963e-18 0.00010296 -5.99515e-18 5.32476e-32)
(-0.00025753 -3.57244e-06 1.58025e-17 9.95002e-05 1.65701e-19 -2.20758e-33)
(-0.000248653 -3.57111e-06 1.19744e-17 9.60681e-05 7.16924e-18 -6.36755e-32)
(-0.000239622 -3.57935e-06 -1.17411e-17 9.25815e-05 2.90298e-18 2.57837e-32)
(-0.000230835 -3.57462e-06 6.09544e-18 8.91616e-05 -3.13034e-18 1.39015e-32)
(-0.000221589 -3.67797e-06 2.46013e-19 8.56363e-05 3.34749e-18 -2.58654e-46)
(-0.000212417 -3.72428e-06 -2.75608e-17 8.18785e-05 6.83457e-18 1.21406e-31)
(-0.000203287 -4.07962e-06 -1.50801e-17 7.88666e-05 -7.41097e-18 -6.58225e-32)
(-0.000191273 -5.12384e-06 -1.52177e-17 7.47664e-05 -8.30075e-20 -7.37253e-34)
(-0.000181839 -3.56482e-06 -7.69259e-18 6.98098e-05 3.91244e-18 1.73747e-32)
(-0.000173614 -3.81276e-06 -5.78252e-19 6.68293e-05 -1.22485e-17 4.35656e-45)
(-0.000164244 -3.58201e-06 3.29915e-17 6.34147e-05 -1.45861e-17 2.59101e-31)
(-0.000155728 -3.59035e-06 6.06842e-17 6.01395e-05 4.55992e-18 -1.41751e-31)
(-0.000146611 -3.57605e-06 2.70115e-17 5.66401e-05 1.11895e-17 -1.49074e-31)
(-0.000137793 -3.57438e-06 1.52981e-19 5.32354e-05 4.54335e-18 1.40003e-48)
(-0.000128819 -3.57267e-06 -1.43017e-19 4.97701e-05 -4.642e-18 3.36536e-46)
(-0.00011992 -3.57248e-06 4.68349e-17 4.63326e-05 -1.64406e-17 3.65054e-31)
(-0.000110985 -3.57215e-06 6.75408e-17 4.28805e-05 4.98613e-18 -1.55e-31)
(-0.000102068 -3.57218e-06 1.97475e-17 3.94353e-05 7.39132e-18 -6.5648e-32)
(-9.31424e-05 -3.57215e-06 3.9733e-17 3.59868e-05 7.99068e-20 -1.41943e-33)
(-8.42211e-05 -3.5722e-06 3.02871e-17 3.254e-05 5.09043e-18 -6.7818e-32)
(-7.52978e-05 -3.57214e-06 2.02816e-17 2.90923e-05 -5.06297e-18 4.49682e-32)
(-6.63758e-05 -3.57197e-06 2.05749e-17 2.5645e-05 2.84717e-20 -2.5288e-34)
(-5.74542e-05 -3.57204e-06 3.11374e-17 2.2198e-05 3.69672e-20 -4.925e-34)
(-4.85293e-05 -3.57019e-06 4.18841e-17 1.87488e-05 5.27438e-18 -9.36917e-32)
(-3.96186e-05 -3.57082e-06 3.16564e-17 1.5305e-05 1.05562e-17 -1.40637e-31)
(-3.06621e-05 -3.55522e-06 -8.51043e-20 1.18354e-05 -1.32284e-17 3.2738e-45)
(-2.18513e-05 -3.54728e-06 1.05894e-17 8.42027e-06 -5.30611e-18 2.35638e-32)
(-1.27483e-05 -3.58959e-06 3.1941e-17 4.92291e-06 7.99413e-18 -1.06503e-31)
(-4.46002e-06 -4.14287e-06 0 2.27414e-06 0 0)
(-0.000117233 -4.78769e-05 1.30154e-19 5.78821e-05 3.9553e-19 0)
(-0.000115296 -4.87553e-06 2.70425e-18 5.98943e-05 -2.08269e-18 0)
(-0.000113901 -7.32648e-06 2.40282e-18 5.8637e-05 -1.83858e-18 0)
(-0.000109343 -9.30053e-06 1.21395e-19 5.64105e-05 1.80477e-18 0)
(-0.000106849 -8.03495e-06 1.38945e-17 5.5172e-05 6.07792e-18 0)
(-0.000103676 -8.50913e-06 1.0817e-17 5.35117e-05 -2.51428e-18 0)
(-0.000100742 -8.34927e-06 -4.39024e-33 5.20091e-05 -2.85332e-32 0)
(-9.77509e-05 -8.39316e-06 -7.25557e-18 5.04615e-05 -1.12047e-19 0)
(-9.47792e-05 -8.38091e-06 -5.29563e-33 4.89283e-05 1.80146e-32 0)
(-9.17965e-05 -8.38335e-06 8.93918e-18 4.73892e-05 1.05225e-19 0)
(-8.88325e-05 -8.3826e-06 -1.52416e-33 4.58573e-05 -7.55603e-32 0)
(-8.58317e-05 -8.38489e-06 -4.73267e-17 4.43128e-05 -4.42774e-19 0)
(-8.29041e-05 -8.38237e-06 4.51193e-34 4.27951e-05 1.50577e-31 0)
(-7.98372e-05 -8.42012e-06 1.19448e-17 4.1235e-05 -2.91507e-18 0)
(-7.70389e-05 -8.37632e-06 3.17139e-17 3.97883e-05 2.20869e-19 0)
(-7.38596e-05 -8.83452e-06 1.34774e-17 3.82439e-05 1.01301e-17 0)
(-7.13076e-05 -8.32189e-06 4.19177e-17 3.71197e-05 -6.77069e-18 0)
(-6.87092e-05 -1.10493e-05 2.92775e-17 3.52765e-05 7.4815e-18 0)
(-6.03837e-05 -7.73882e-06 -3.35197e-20 3.02504e-05 -3.81136e-18 0)
(-5.77033e-05 -6.37537e-06 3.1434e-17 2.99851e-05 -1.56762e-17 0)
(-5.81173e-05 -8.33619e-06 4.07754e-17 3.02433e-05 4.25145e-18 0)
(-5.44117e-05 -8.10871e-06 0 2.81585e-05 0 0)
(-5.19669e-05 -8.35778e-06 -1.73e-17 2.68395e-05 -4.38665e-18 0)
(-4.88131e-05 -8.35981e-06 2.6632e-17 2.52142e-05 8.96181e-18 0)
(-4.59468e-05 -8.37747e-06 1.81651e-17 2.37165e-05 4.59685e-18 0)
(-4.29273e-05 -8.37881e-06 1.84627e-17 2.21636e-05 -1.38793e-17 0)
(-3.99776e-05 -8.37976e-06 9.45121e-18 2.06367e-05 2.29114e-20 0)
(-3.69921e-05 -8.37983e-06 -2.88458e-17 1.90973e-05 4.75675e-18 0)
(-3.40235e-05 -8.37982e-06 2.93394e-17 1.75638e-05 5.84991e-20 0)
(-3.10466e-05 -8.3798e-06 -1.98658e-17 1.60274e-05 -5.00704e-18 0)
(-2.80737e-05 -8.3798e-06 -2.01111e-17 1.44927e-05 -3.21802e-20 0)
(-2.50989e-05 -8.37968e-06 3.05627e-17 1.2957e-05 1.53315e-17 0)
(-2.21249e-05 -8.3794e-06 -2.05693e-17 1.14216e-05 -5.17391e-18 0)
(-1.91505e-05 -8.3806e-06 2.0719e-17 9.8863e-06 -1.03668e-17 0)
(-1.61732e-05 -8.37809e-06 1.04306e-17 8.34962e-06 -1.04579e-17 0)
(-1.31989e-05 -8.39087e-06 1.7278e-31 6.81521e-06 6.05822e-30 0)
(-1.01859e-05 -8.37127e-06 5.28689e-17 5.26478e-06 3.70748e-17 0)
(-7.21581e-06 -8.44517e-06 -5.30266e-17 3.7379e-06 -5.33238e-18 0)
(-3.93694e-06 -8.47955e-06 3.18869e-17 2.19142e-06 -1.06419e-17 0)
(-1.33195e-06 -7.19232e-06 1.06427e-17 1.31827e-06 1.59892e-17 7.08944e-32)
(0.000117235 -4.78769e-05 5.78444e-19 -5.78831e-05 -1.28526e-19 0)
(0.000115298 -4.87553e-06 1.28007e-19 -5.98956e-05 -7.8289e-19 0)
(0.000113904 -7.32648e-06 -2.5925e-18 -5.86382e-05 1.30203e-19 0)
(0.000109346 -9.30053e-06 -1.24888e-17 -5.64118e-05 4.38408e-19 0)
(0.000106851 -8.03496e-06 6.91759e-18 -5.51731e-05 -2.46793e-18 0)
(0.00010368 -8.50914e-06 -5.58115e-18 -5.3513e-05 2.87074e-18 0)
(0.000100744 -8.34928e-06 2.85154e-18 -5.201e-05 9.55913e-18 0)
(9.77554e-05 -8.39317e-06 7.25557e-18 -5.04633e-05 -1.12051e-19 0)
(9.47778e-05 -8.3809e-06 2.10449e-19 -4.8928e-05 -8.14782e-18 0)
(9.18071e-05 -8.38329e-06 1.34088e-17 -4.7393e-05 -1.5785e-19 0)
(8.88179e-05 -8.38233e-06 1.43162e-17 -4.58521e-05 1.45151e-17 0)
(8.58671e-05 -8.38329e-06 1.57756e-17 -4.43242e-05 -1.47629e-19 0)
(8.2828e-05 -8.37722e-06 2.75873e-19 -4.27634e-05 -1.69553e-17 0)
(7.99602e-05 -8.39084e-06 1.21223e-17 -4.12599e-05 -9.11143e-18 0)
(7.66021e-05 -8.30486e-06 -6.25783e-18 -3.95544e-05 -6.31741e-18 0)
(7.41646e-05 -8.4382e-06 1.9992e-17 -3.81653e-05 3.22111e-18 0)
(6.82016e-05 -7.76732e-06 -7.5719e-20 -3.53607e-05 7.01802e-18 0)
(6.96542e-05 -8.71978e-06 -7.73317e-20 -3.57119e-05 7.32722e-18 0)
(4.03326e-05 -1.51732e-05 2.60076e-17 -1.99551e-05 -9.27594e-18 0)
(6.27534e-05 -8.25426e-06 1.04505e-19 -3.26702e-05 -1.18536e-17 0)
(5.53565e-05 -8.0622e-06 8.21026e-18 -2.88182e-05 -8.19869e-18 0)
(5.5047e-05 -8.42071e-06 -1.67971e-17 -2.83756e-05 6.30064e-20 0)
(5.15819e-05 -8.35528e-06 -3.45135e-17 -2.66526e-05 -4.20868e-18 0)
(4.89482e-05 -8.38106e-06 -8.88643e-18 -2.5257e-05 4.46698e-18 0)
(4.58764e-05 -8.37821e-06 1.80632e-17 -2.36889e-05 1.358e-17 0)
(4.29604e-05 -8.37994e-06 9.29095e-18 -2.21749e-05 -4.66747e-18 0)
(3.99627e-05 -8.37985e-06 -9.40684e-18 -2.06314e-05 -9.44691e-18 0)
(3.70006e-05 -8.37989e-06 2.67067e-33 -1.91002e-05 -5.88572e-36 0)
(3.40207e-05 -8.37983e-06 -3.77706e-20 -1.7563e-05 9.79841e-18 0)
(3.10492e-05 -8.37981e-06 -8.61789e-20 -1.60286e-05 2.48572e-17 0)
(2.80735e-05 -8.37981e-06 4.67518e-20 -1.44925e-05 -1.51113e-17 0)
(2.50999e-05 -8.3797e-06 2.78664e-20 -1.29573e-05 -1.01922e-17 0)
(2.21252e-05 -8.37942e-06 -1.22819e-20 -1.14219e-05 5.14855e-18 0)
(1.9151e-05 -8.3806e-06 3.18928e-20 -9.88657e-06 -1.55831e-17 0)
(1.61734e-05 -8.37809e-06 -2.09331e-17 -8.34964e-06 2.09529e-17 0)
(1.31991e-05 -8.3909e-06 -5.25691e-17 -6.81532e-06 3.78326e-20 0)
(1.0186e-05 -8.37126e-06 -2.33186e-32 -5.26494e-06 -1.01152e-30 0)
(7.21562e-06 -8.44511e-06 2.1209e-17 -3.73781e-06 -8.29961e-21 0)
(3.93686e-06 -8.4795e-06 8.74158e-21 -2.19118e-06 -2.12985e-17 0)
(1.33216e-06 -7.19239e-06 -1.84874e-21 -1.31847e-06 2.66438e-17 -2.05251e-35)
(0.000360728 -3.43239e-05 1.57037e-18 -0.000135182 -6.10992e-19 5.4267e-33)
(0.000338229 -2.35646e-06 -1.18064e-18 -0.000132373 -2.44691e-19 -2.17329e-33)
(0.000341886 -2.72252e-06 -3.36822e-18 -0.000131899 1.45702e-18 1.29409e-32)
(0.000327538 -3.95313e-06 -3.04267e-18 -0.000126598 -1.21158e-18 -1.0761e-32)
(0.0003205 -3.39899e-06 -1.1375e-17 -0.000123851 3.43757e-19 7.63293e-33)
(0.000310999 -3.62048e-06 2.87259e-33 -0.000120155 2.71205e-32 -4.27886e-61)
(0.000302225 -3.55592e-06 -8.91703e-18 -0.000116772 -3.00947e-18 -4.00941e-32)
(0.000293258 -3.5758e-06 7.11075e-18 -0.000113304 7.85386e-19 -6.97562e-33)
(0.000284334 -3.57109e-06 -7.97071e-18 -0.000109857 -8.96086e-19 -7.95883e-33)
(0.000275411 -3.57211e-06 -1.2977e-17 -0.000106409 -3.18767e-18 -4.24682e-32)
(0.00026647 -3.57198e-06 -2.43982e-17 -0.000102954 2.85755e-19 6.34503e-33)
(0.000257569 -3.57073e-06 1.53735e-17 -9.95154e-05 3.79084e-18 -5.05041e-32)
(0.000248587 -3.5689e-06 -1.14223e-17 -9.60418e-05 1.51915e-18 1.34927e-32)
(0.00023979 -3.55539e-06 -1.20072e-17 -9.26444e-05 1.02856e-19 9.13544e-34)
(0.000230619 -3.52392e-06 -3.16311e-17 -8.90642e-05 -1.34271e-18 -2.98141e-32)
(0.000222429 -3.34138e-06 -3.36823e-17 -8.59196e-05 3.58572e-18 7.96189e-32)
(0.000212483 -3.1892e-06 -1.4137e-17 -8.1652e-05 1.8448e-18 1.63851e-32)
(0.000207686 -1.55213e-06 -1.44171e-17 -8.01875e-05 -3.57462e-18 -3.1749e-32)
(0.000199116 -1.26375e-06 -1.51259e-17 -7.89107e-05 -1.81765e-18 -1.61439e-32)
(0.000182926 -5.6301e-06 -2.35568e-17 -7.10093e-05 -1.8564e-18 -2.47322e-32)
(0.000173594 -3.52962e-06 -4.92306e-17 -6.66338e-05 6.34551e-18 1.69078e-31)
(0.000164795 -3.84375e-06 -1.72718e-17 -6.36278e-05 1.05903e-17 9.4061e-32)
(0.000155513 -3.58545e-06 -8.47177e-18 -6.0047e-05 -4.29286e-18 -1.90641e-32)
(0.000146754 -3.59391e-06 -4.40152e-17 -5.6695e-05 -8.71884e-18 -1.93597e-31)
(0.000137729 -3.57369e-06 -3.62385e-17 -5.32103e-05 -2.15352e-18 -3.82541e-32)
(0.000128853 -3.57404e-06 -2.78282e-17 -4.97838e-05 8.29067e-20 1.10454e-33)
(0.000119905 -3.57222e-06 -4.73675e-17 -4.63267e-05 2.49561e-18 5.54136e-32)
(0.000110994 -3.57233e-06 -3.85243e-17 -4.2884e-05 9.52217e-20 1.69147e-33)
(0.000102065 -3.57212e-06 -4.89439e-17 -3.94342e-05 1.09452e-19 2.43032e-33)
(9.31451e-05 -3.57219e-06 -1.98148e-17 -3.59879e-05 -2.44535e-18 -2.1719e-32)
(8.42208e-05 -3.5722e-06 -1.00645e-17 -3.25398e-05 1.80633e-20 8.02168e-35)
(7.52989e-05 -3.57216e-06 -5.10384e-17 -2.90927e-05 7.72366e-18 1.71499e-31)
(6.63761e-05 -3.57196e-06 3.68461e-20 -2.56452e-05 -2.57385e-18 3.48976e-47)
(5.74547e-05 -3.57203e-06 -5.18956e-17 -2.21982e-05 6.16124e-20 1.36807e-33)
(4.85296e-05 -3.57019e-06 -3.14535e-17 -1.87488e-05 7.88035e-18 1.04987e-31)
(3.96187e-05 -3.57081e-06 2.10896e-17 -1.5305e-05 -5.28236e-18 4.69167e-32)
(3.06621e-05 -3.55523e-06 -5.28743e-17 -1.18352e-05 3.28494e-20 7.29403e-34)
(2.18512e-05 -3.54733e-06 2.12395e-17 -8.42027e-06 -2.66474e-18 2.36676e-32)
(1.27483e-05 -3.5895e-06 -6.38396e-17 -4.92323e-06 1.63978e-20 4.36917e-34)
(4.46016e-06 -4.14283e-06 -1.06579e-17 -2.27406e-06 8.00003e-18 5.89621e-35)
)
;

boundaryField
{
    top
    {
        type            calculated;
        value           nonuniform List<symmTensor> 
40
(
(0.000360728 8.45834e-11 1.57037e-18 -0.000154598 1.87855e-25 5.4267e-33)
(0.000338229 -1.80289e-12 -1.18064e-18 -0.000144955 1.83603e-25 -2.17329e-33)
(0.000341886 -1.45121e-10 -3.36822e-18 -0.000146523 8.3473e-25 1.29409e-32)
(0.000327538 -2.80603e-10 -3.04267e-18 -0.000140373 -7.47321e-25 -1.0761e-32)
(0.0003205 -4.18021e-10 -1.1375e-17 -0.000137357 4.70701e-25 7.63293e-33)
(0.000310999 -5.60691e-10 2.87259e-33 -0.000133285 2.4438e-38 -4.27886e-61)
(0.000302225 -7.09223e-10 -8.91703e-18 -0.000129525 -2.87242e-24 -4.00941e-32)
(0.000293258 -8.63118e-10 7.11075e-18 -0.000125682 7.74209e-25 -6.97562e-33)
(0.000284334 -1.01719e-09 -7.97071e-18 -0.000121858 -9.46408e-25 -7.95883e-33)
(0.000275411 -1.16245e-09 -1.2977e-17 -0.000118033 -3.60195e-24 -4.24682e-32)
(0.00026647 -1.29325e-09 -2.43982e-17 -0.000114201 4.37757e-25 6.34503e-33)
(0.000257569 -1.41315e-09 1.53735e-17 -0.000110387 4.4526e-24 -5.05041e-32)
(0.000248587 -1.53239e-09 -1.14223e-17 -0.000106537 1.86619e-24 1.34927e-32)
(0.00023979 -1.66031e-09 -1.20072e-17 -0.000102767 1.64168e-25 9.13544e-34)
(0.000230619 -1.79838e-09 -3.16311e-17 -9.88367e-05 -1.58715e-24 -2.98141e-32)
(0.000222429 -1.93746e-09 -3.36823e-17 -9.53267e-05 4.70273e-24 7.96189e-32)
(0.000212483 -2.06656e-09 -1.4137e-17 -9.10643e-05 2.44761e-24 1.63851e-32)
(0.000207686 -2.18658e-09 -1.44171e-17 -8.90081e-05 -4.70075e-24 -3.1749e-32)
(0.000199116 -2.30534e-09 -1.51259e-17 -8.53353e-05 -2.40431e-24 -1.61439e-32)
(0.000182926 -2.4308e-09 -2.35568e-17 -7.83968e-05 -2.49437e-24 -2.47322e-32)
(0.000173594 -2.56883e-09 -4.92306e-17 -7.43972e-05 8.94142e-24 1.69078e-31)
(0.000164795 -2.71803e-09 -1.72718e-17 -7.06263e-05 1.52201e-23 9.4061e-32)
(0.000155513 -2.86289e-09 -8.47177e-18 -6.66482e-05 -6.28957e-24 -1.90641e-32)
(0.000146754 -2.98286e-09 -4.40152e-17 -6.28946e-05 -1.29333e-23 -1.93597e-31)
(0.000137729 -3.07731e-09 -3.62385e-17 -5.90266e-05 -3.21222e-24 -3.82541e-32)
(0.000128853 -3.15283e-09 -2.78282e-17 -5.52229e-05 1.31101e-25 1.10454e-33)
(0.000119905 -3.20659e-09 -4.73675e-17 -5.13879e-05 3.80422e-24 5.54136e-32)
(0.000110994 -3.25607e-09 -3.85243e-17 -4.75689e-05 2.0339e-25 1.69147e-33)
(0.000102065 -3.32238e-09 -4.89439e-17 -4.37421e-05 1.92651e-25 2.43032e-33)
(9.31451e-05 -3.40822e-09 -1.98148e-17 -3.99193e-05 -3.71956e-24 -2.1719e-32)
(8.42208e-05 -3.49665e-09 -1.00645e-17 -3.60946e-05 3.84912e-26 8.02168e-35)
(7.52989e-05 -3.56605e-09 -5.10384e-17 -3.22709e-05 1.20534e-23 1.71499e-31)
(6.63761e-05 -3.59165e-09 3.68461e-20 -2.84469e-05 -3.98753e-24 3.48976e-47)
(5.74547e-05 -3.60993e-09 -5.18956e-17 -2.46234e-05 1.65243e-25 1.36807e-33)
(4.85296e-05 -3.68165e-09 -3.14535e-17 -2.07984e-05 1.2343e-23 1.04987e-31)
(3.96187e-05 -3.71251e-09 2.10896e-17 -1.69795e-05 -8.24243e-24 4.69167e-32)
(3.06621e-05 -3.73039e-09 -5.28743e-17 -1.31409e-05 -1.29664e-26 7.29403e-34)
(2.18512e-05 -3.7599e-09 2.12395e-17 -9.36481e-06 -4.20638e-24 2.36676e-32)
(1.27483e-05 -3.75321e-09 -6.38396e-17 -5.46355e-06 2.83872e-25 4.36917e-34)
(4.46016e-06 -3.76991e-09 -1.06579e-17 -1.91149e-06 1.26172e-23 5.89621e-35)
)
;
    }
    left
    {
        type            calculated;
        value           nonuniform List<symmTensor> 4((-0.000399434 -1.39417e-05 -7.37809e-19 0.000135181 1.60747e-19 2.85546e-33) (-0.000121579 9.43295e-07 1.30154e-19 5.78821e-05 3.9553e-19 0) (0.000121582 9.43122e-07 5.78444e-19 -5.78831e-05 -1.28526e-19 0) (0.000399437 -1.39421e-05 1.57037e-18 -0.000135182 -6.10992e-19 5.4267e-33));
    }
    right
    {
        type            calculated;
        value           nonuniform List<symmTensor> 4((-9.74635e-07 -6.49622e-06 0 2.27414e-06 0 0) (-5.64983e-07 -6.49622e-06 1.67985e-23 1.31827e-06 1.59892e-17 7.08944e-32) (5.65056e-07 -6.49622e-06 -3.13648e-27 -1.31847e-06 2.66438e-17 -2.05251e-35) (9.74602e-07 -6.49622e-06 -1.68213e-23 -2.27406e-06 8.00003e-18 5.89621e-35));
    }
    bottom
    {
        type            calculated;
        value           nonuniform List<symmTensor> 
40
(
(-0.000360725 8.41063e-11 -7.37809e-19 0.000154597 -7.50388e-25 2.85546e-33)
(-0.000338227 -1.93751e-12 -1.55615e-18 0.000144954 -1.87426e-25 -1.30529e-33)
(-0.000341883 -1.44765e-10 1.84994e-18 0.000146521 -4.52916e-25 1.03397e-32)
(-0.000327535 -2.79667e-10 9.6976e-18 0.000140372 1.70774e-24 -4.78333e-32)
(-0.000320498 -4.17744e-10 -8.7442e-18 0.000137356 5.54429e-25 1.53881e-32)
(-0.000310996 -5.6157e-10 -6.17479e-18 0.000133284 -2.68075e-24 -2.56111e-32)
(-0.000302223 -7.10185e-10 6.39207e-18 0.000129524 1.88858e-25 -1.15145e-33)
(-0.000293253 -8.632e-10 -7.27355e-18 0.00012568 -1.88785e-25 -1.11724e-33)
(-0.000284336 -1.01637e-09 8.12855e-18 0.000121858 1.83589e-25 -1.08328e-33)
(-0.0002754 -1.16147e-09 -8.95713e-18 0.000118028 -1.74813e-25 -1.04923e-33)
(-0.000266485 -1.29322e-09 9.01963e-18 0.000114208 -7.0104e-24 5.32476e-32)
(-0.00025753 -1.41419e-09 1.58025e-17 0.00011037 2.51704e-25 -2.20758e-33)
(-0.000248653 -1.53328e-09 1.19744e-17 0.000106566 8.68192e-24 -6.36755e-32)
(-0.000239622 -1.66033e-09 -1.17411e-17 0.000102695 3.51501e-24 2.57837e-32)
(-0.000230835 -1.79781e-09 6.09544e-18 9.89294e-05 -3.90812e-24 1.39015e-32)
(-0.000221589 -1.93694e-09 2.46013e-19 9.49665e-05 4.30087e-24 -2.58654e-46)
(-0.000212417 -2.06623e-09 -2.75608e-17 9.1036e-05 8.88018e-24 1.21406e-31)
(-0.000203287 -2.18534e-09 -1.50801e-17 8.71232e-05 -9.85424e-24 -6.58225e-32)
(-0.000191273 -2.30489e-09 -1.52177e-17 8.19743e-05 -1.49917e-25 -7.37253e-34)
(-0.000181839 -2.43187e-09 -7.69259e-18 7.79309e-05 5.33082e-24 1.73747e-32)
(-0.000173614 -2.57026e-09 -5.78252e-19 7.44061e-05 -1.71214e-23 4.35656e-45)
(-0.000164244 -2.71878e-09 3.29915e-17 7.03904e-05 -2.08512e-23 2.59101e-31)
(-0.000155728 -2.86108e-09 6.06842e-17 6.67405e-05 6.82913e-24 -1.41751e-31)
(-0.000146611 -2.98257e-09 2.70115e-17 6.28333e-05 1.6729e-23 -1.49074e-31)
(-0.000137793 -3.07981e-09 1.52981e-19 5.90541e-05 6.83856e-24 1.40003e-48)
(-0.000128819 -3.15037e-09 -1.43017e-19 5.52079e-05 -6.99522e-24 3.36536e-46)
(-0.00011992 -3.20232e-09 4.68349e-17 5.13944e-05 -2.46662e-23 3.65054e-31)
(-0.000110985 -3.26083e-09 6.75408e-17 4.7565e-05 7.58233e-24 -1.55e-31)
(-0.000102068 -3.32996e-09 1.97475e-17 4.37434e-05 1.11864e-23 -6.5648e-32)
(-9.31424e-05 -3.40531e-09 3.9733e-17 3.99181e-05 1.7002e-25 -1.41943e-33)
(-8.42211e-05 -3.48758e-09 3.02871e-17 3.60947e-05 7.85013e-24 -6.7818e-32)
(-7.52978e-05 -3.56393e-09 2.02816e-17 3.22705e-05 -7.8669e-24 4.49682e-32)
(-6.63758e-05 -3.59602e-09 2.05749e-17 2.84468e-05 3.27866e-26 -2.5288e-34)
(-5.74542e-05 -3.61745e-09 3.11374e-17 2.46232e-05 1.03882e-25 -4.925e-34)
(-4.85293e-05 -3.6799e-09 4.18841e-17 2.07983e-05 8.31768e-24 -9.36917e-32)
(-3.96186e-05 -3.7063e-09 3.16564e-17 1.69794e-05 1.64226e-23 -1.40637e-31)
(-3.06621e-05 -3.7344e-09 -8.51043e-20 1.31409e-05 -2.07301e-23 3.2738e-45)
(-2.18513e-05 -3.75697e-09 1.05894e-17 9.36484e-06 -8.32139e-24 2.35638e-32)
(-1.27483e-05 -3.74737e-09 3.1941e-17 5.46353e-06 1.24854e-23 -1.06503e-31)
(-4.46002e-06 -3.7705e-09 0 1.91144e-06 0 0)
)
;
    }
    front
    {
        type            empty;
    }
    back
    {
        type            empty;
    }
}


// ************************************************************************* //
