/*--------------------------------*- C++ -*----------------------------------*\
| =========                 |                                                 |
| \\      /  F ield         | foam-extend: Open Source CFD                    |
|  \\    /   O peration     | Version:     4.0                                |
|   \\  /    A nd           | Web:         http://www.foam-extend.org         |
|    \\/     M anipulation  |                                                 |
\*---------------------------------------------------------------------------*/
FoamFile
{
    version     2.0;
    format      ascii;
    class       pointVectorField;
    location    "1";
    object      pointD;
}
// * * * * * * * * * * * * * * * * * * * * * * * * * * * * * * * * * * * * * //

dimensions      [0 1 0 0 0 0 0];

internalField   nonuniform List<vector> 
410
(
(-5.18938e-06 -1.93246e-06 8.03741e-21)
(-2.50406e-05 -2.26297e-05 3.44651e-22)
(-4.67352e-05 -5.78563e-05 -3.27777e-20)
(-6.95688e-05 -0.000116851 2.47518e-20)
(-9.14172e-05 -0.000197987 7.55123e-20)
(-0.000112775 -0.000300739 -5.04321e-20)
(-0.000133512 -0.000424547 -6.88478e-20)
(-0.000153659 -0.000568791 9.62957e-23)
(-0.000173209 -0.000732887 -9.56069e-23)
(-0.000192165 -0.000916235 9.58403e-23)
(-0.000210525 -0.00111824 -1.52832e-19)
(-0.000228291 -0.00133831 -1.45736e-19)
(-0.00024546 -0.00157585 1.83373e-19)
(-0.000262036 -0.00183025 2.51805e-19)
(-0.000278012 -0.00210094 -5.68382e-21)
(-0.000293401 -0.00238731 5.42871e-21)
(-0.000308177 -0.00268877 2.54551e-19)
(-0.000322336 -0.00300471 -1.44099e-20)
(-0.0003359 -0.00333447 -1.87349e-19)
(-0.000348723 -0.0036776 9.57358e-20)
(-0.000360885 -0.00403344 -2.08402e-19)
(-0.000372454 -0.00440115 -6.70865e-19)
(-0.000383407 -0.00478009 -2.50654e-19)
(-0.000393787 -0.00516972 3.93735e-19)
(-0.000403562 -0.00556942 3.93321e-19)
(-0.000412748 -0.0059786 -2.46636e-21)
(-0.000421336 -0.00639666 -5.27065e-19)
(-0.00042933 -0.00682302 -2.86362e-19)
(-0.000436729 -0.00725708 3.09436e-19)
(-0.000443534 -0.00769823 1.8678e-19)
(-0.000449743 -0.0081459 1.29258e-19)
(-0.000455358 -0.00859947 6.86381e-22)
(-0.000460378 -0.00905837 -1.25862e-19)
(-0.000464803 -0.00952198 1.63597e-21)
(-0.000468633 -0.00998972 1.32783e-19)
(-0.000471869 -0.010461 3.95765e-19)
(-0.00047451 -0.0109352 -6.68053e-20)
(-0.000476554 -0.0114118 -4.63363e-19)
(-0.000478013 -0.0118901 6.72003e-20)
(-0.000478886 -0.0123696 1.99853e-19)
(-0.000479196 -0.0128498 0)
(-1.32903e-21 -1.04785e-21 0)
(-1.19489e-05 -1.92853e-05 0)
(-2.3287e-05 -5.4553e-05 0)
(-3.46816e-05 -0.00011362 0)
(-4.56036e-05 -0.000194856 0)
(-5.62872e-05 -0.000297689 0)
(-6.6654e-05 -0.000421585 0)
(-7.67282e-05 -0.000565915 0)
(-8.65033e-05 -0.000730097 0)
(-9.59811e-05 -0.000913531 0)
(-0.000105161 -0.00111562 0)
(-0.000114044 -0.00133578 0)
(-0.000122628 -0.0015734 0)
(-0.000130917 -0.0018279 0)
(-0.000138903 -0.00209867 0)
(-0.0001466 -0.00238512 0)
(-0.000153987 -0.00268668 0)
(-0.00016108 -0.0030027 0)
(-0.00016788 -0.00333255 0)
(-0.000174171 -0.00367579 0)
(-0.00018016 -0.00403174 0)
(-0.000185953 -0.00439952 0)
(-0.000191419 -0.00477855 0)
(-0.000196612 -0.00516826 0)
(-0.000201497 -0.00556804 0)
(-0.000206091 -0.00597731 0)
(-0.000210384 -0.00639546 0)
(-0.000214382 -0.00682191 0)
(-0.000218081 -0.00725605 0)
(-0.000221484 -0.00769729 0)
(-0.000224588 -0.00814504 0)
(-0.000227396 -0.0085987 0)
(-0.000229906 -0.00905768 0)
(-0.000232118 -0.00952138 0)
(-0.000234033 -0.00998921 0)
(-0.000235651 -0.0104606 0)
(-0.000236971 -0.0109349 0)
(-0.000237992 -0.0114115 0)
(-0.000238719 -0.0118899 0)
(-0.000239136 -0.0123695 0)
(-0.000239281 -0.0128496 -5.32133e-19)
(7.94093e-22 0 0)
(6.8572e-11 -1.78131e-05 0)
(1.41232e-10 -5.30713e-05 0)
(2.11476e-10 -0.000112182 0)
(2.85125e-10 -0.000193461 0)
(3.49428e-10 -0.000296331 0)
(4.29559e-10 -0.000420266 0)
(4.73235e-10 -0.000564634 0)
(5.87514e-10 -0.000728855 0)
(5.52196e-10 -0.000912327 0)
(8.17421e-10 -0.00111446 0)
(4.51416e-10 -0.00133465 0)
(1.33687e-09 -0.00157231 0)
(-5.66507e-10 -0.00182685 0)
(2.50972e-09 -0.00209766 0)
(-8.41023e-09 -0.00238415 0)
(-7.83833e-10 -0.00268574 0)
(-7.84349e-08 -0.0030018 0)
(-5.48091e-08 -0.00333173 0)
(2.99174e-07 -0.00367504 0)
(4.25427e-07 -0.00403098 0)
(3.56407e-07 -0.00439879 0)
(3.7229e-07 -0.00477786 0)
(3.62664e-07 -0.00516761 0)
(3.66041e-07 -0.00556743 0)
(3.64282e-07 -0.00597674 0)
(3.6511e-07 -0.00639493 0)
(3.64738e-07 -0.00682141 0)
(3.64952e-07 -0.00725559 0)
(3.64882e-07 -0.00769687 0)
(3.64949e-07 -0.00814466 0)
(3.64943e-07 -0.00859836 0)
(3.64967e-07 -0.00905738 0)
(3.64975e-07 -0.00952112 0)
(3.64987e-07 -0.00998898 0)
(3.64991e-07 -0.0104604 0)
(3.64996e-07 -0.0109347 0)
(3.64998e-07 -0.0114114 0)
(3.64993e-07 -0.0118898 0)
(3.64991e-07 -0.0123694 0)
(3.64997e-07 -0.0128494 -5.32041e-19)
(-1.27055e-21 -5.87747e-39 0)
(1.19491e-05 -1.92853e-05 0)
(2.32873e-05 -5.4553e-05 0)
(3.4682e-05 -0.00011362 0)
(4.56041e-05 -0.000194856 0)
(5.62879e-05 -0.000297689 0)
(6.66549e-05 -0.000421585 0)
(7.67291e-05 -0.000565915 0)
(8.65044e-05 -0.000730097 0)
(9.59822e-05 -0.000913531 0)
(0.000105163 -0.00111562 0)
(0.000114045 -0.00133578 0)
(0.000122631 -0.0015734 0)
(0.000130916 -0.0018279 0)
(0.00013891 -0.00209867 0)
(0.00014659 -0.00238512 0)
(0.000154005 -0.00268666 0)
(0.000161022 -0.00300269 0)
(0.000167956 -0.00333268 0)
(0.000174797 -0.00367595 0)
(0.000180939 -0.00403175 0)
(0.000186663 -0.0043995 0)
(0.000192159 -0.00477855 0)
(0.000197337 -0.00516826 0)
(0.000202229 -0.00556804 0)
(0.000206819 -0.00597731 0)
(0.000211115 -0.00639546 0)
(0.000215111 -0.00682191 0)
(0.000218811 -0.00725605 0)
(0.000222213 -0.00769729 0)
(0.000225318 -0.00814504 0)
(0.000228125 -0.0085987 0)
(0.000230635 -0.00905768 0)
(0.000232848 -0.00952138 0)
(0.000234763 -0.00998921 0)
(0.000236381 -0.0104606 0)
(0.000237701 -0.0109349 0)
(0.000238722 -0.0114115 0)
(0.000239449 -0.0118899 0)
(0.000239866 -0.0123695 0)
(0.000240011 -0.0128496 5.32985e-19)
(5.18939e-06 -1.93247e-06 3.05496e-20)
(2.50407e-05 -2.26297e-05 2.13921e-20)
(4.67354e-05 -5.78564e-05 -3.03082e-20)
(6.95692e-05 -0.000116851 -6.13603e-21)
(9.14178e-05 -0.000197987 2.16956e-20)
(0.000112776 -0.000300739 -8.59392e-21)
(0.000133513 -0.000424547 7.52366e-20)
(0.00015366 -0.000568791 5.5602e-20)
(0.000173211 -0.000732887 2.76749e-21)
(0.000192166 -0.000916235 1.02094e-19)
(0.000210527 -0.00111824 7.25477e-20)
(0.000228291 -0.00133831 -1.01915e-19)
(0.000245462 -0.00157585 -1.3275e-19)
(0.000262035 -0.00183025 -4.055e-20)
(0.000278019 -0.00210094 3.09963e-20)
(0.000293395 -0.00238731 -5.60752e-20)
(0.000308215 -0.00268875 -1.35763e-19)
(0.000322402 -0.00300471 4.32454e-20)
(0.000336189 -0.00333467 1.34807e-19)
(0.000349361 -0.00367782 9.18511e-20)
(0.000361568 -0.00403347 -1.12228e-19)
(0.000373159 -0.00440113 -4.23396e-19)
(0.000384144 -0.0047801 -1.57437e-19)
(0.000394511 -0.00516972 3.25292e-19)
(0.000404294 -0.00556942 2.71808e-19)
(0.000413476 -0.0059786 5.17653e-20)
(0.000422066 -0.00639666 -6.44629e-20)
(0.00043006 -0.00682302 -6.47707e-20)
(0.000437459 -0.00725708 -5.11683e-21)
(0.000444264 -0.00769823 5.83972e-20)
(0.000450473 -0.0081459 6.0682e-20)
(0.000456088 -0.00859947 -1.93543e-19)
(0.000461108 -0.00905837 -1.28745e-19)
(0.000465533 -0.00952198 6.28059e-20)
(0.000469363 -0.00998972 -1.98549e-19)
(0.000472599 -0.010461 -6.49495e-20)
(0.00047524 -0.0109352 1.31238e-19)
(0.000477284 -0.0114118 6.57972e-20)
(0.000478743 -0.0118901 6.62085e-20)
(0.000479616 -0.0123696 -2.0041e-19)
(0.000479926 -0.0128498 6.65783e-19)
(-5.18938e-06 -1.93246e-06 8.03741e-21)
(-2.50406e-05 -2.26297e-05 3.44651e-22)
(-4.67352e-05 -5.78563e-05 -3.27777e-20)
(-6.95688e-05 -0.000116851 2.47518e-20)
(-9.14172e-05 -0.000197987 7.55123e-20)
(-0.000112775 -0.000300739 -5.04321e-20)
(-0.000133512 -0.000424547 -6.88478e-20)
(-0.000153659 -0.000568791 9.62957e-23)
(-0.000173209 -0.000732887 -9.56069e-23)
(-0.000192165 -0.000916235 9.58403e-23)
(-0.000210525 -0.00111824 -1.52832e-19)
(-0.000228291 -0.00133831 -1.45736e-19)
(-0.00024546 -0.00157585 1.83373e-19)
(-0.000262036 -0.00183025 2.51805e-19)
(-0.000278012 -0.00210094 -5.68382e-21)
(-0.000293401 -0.00238731 5.42871e-21)
(-0.000308177 -0.00268877 2.54551e-19)
(-0.000322336 -0.00300471 -1.44099e-20)
(-0.0003359 -0.00333447 -1.87349e-19)
(-0.000348723 -0.0036776 9.57358e-20)
(-0.000360885 -0.00403344 -2.08402e-19)
(-0.000372454 -0.00440115 -6.70865e-19)
(-0.000383407 -0.00478009 -2.50654e-19)
(-0.000393787 -0.00516972 3.93735e-19)
(-0.000403562 -0.00556942 3.93321e-19)
(-0.000412748 -0.0059786 -2.46636e-21)
(-0.000421336 -0.00639666 -5.27065e-19)
(-0.00042933 -0.00682302 -2.86362e-19)
(-0.000436729 -0.00725708 3.09436e-19)
(-0.000443534 -0.00769823 1.8678e-19)
(-0.000449743 -0.0081459 1.29258e-19)
(-0.000455358 -0.00859947 6.86381e-22)
(-0.000460378 -0.00905837 -1.25862e-19)
(-0.000464803 -0.00952198 1.63597e-21)
(-0.000468633 -0.00998972 1.32783e-19)
(-0.000471869 -0.010461 3.95765e-19)
(-0.00047451 -0.0109352 -6.68053e-20)
(-0.000476554 -0.0114118 -4.63363e-19)
(-0.000478013 -0.0118901 6.72003e-20)
(-0.000478886 -0.0123696 1.99853e-19)
(-0.000479196 -0.0128498 0)
(-5.84847e-23 -2.0082e-22 0)
(-1.19489e-05 -1.92853e-05 0)
(-2.3287e-05 -5.4553e-05 0)
(-3.46816e-05 -0.00011362 0)
(-4.56036e-05 -0.000194856 0)
(-5.62872e-05 -0.000297689 0)
(-6.6654e-05 -0.000421585 0)
(-7.67282e-05 -0.000565915 0)
(-8.65033e-05 -0.000730097 0)
(-9.59811e-05 -0.000913531 0)
(-0.000105161 -0.00111562 0)
(-0.000114044 -0.00133578 0)
(-0.000122628 -0.0015734 0)
(-0.000130917 -0.0018279 0)
(-0.000138903 -0.00209867 0)
(-0.0001466 -0.00238512 0)
(-0.000153987 -0.00268668 0)
(-0.00016108 -0.0030027 0)
(-0.00016788 -0.00333255 0)
(-0.000174171 -0.00367579 0)
(-0.00018016 -0.00403174 0)
(-0.000185953 -0.00439952 0)
(-0.000191419 -0.00477855 0)
(-0.000196612 -0.00516826 0)
(-0.000201497 -0.00556804 0)
(-0.000206091 -0.00597731 0)
(-0.000210384 -0.00639546 0)
(-0.000214382 -0.00682191 0)
(-0.000218081 -0.00725605 0)
(-0.000221484 -0.00769729 0)
(-0.000224588 -0.00814504 0)
(-0.000227396 -0.0085987 0)
(-0.000229906 -0.00905768 0)
(-0.000232118 -0.00952138 0)
(-0.000234033 -0.00998921 0)
(-0.000235651 -0.0104606 0)
(-0.000236971 -0.0109349 0)
(-0.000237992 -0.0114115 0)
(-0.000238719 -0.0118899 0)
(-0.000239136 -0.0123695 0)
(-0.000239281 -0.0128496 -5.32133e-19)
(6.24686e-22 0 0)
(6.8572e-11 -1.78131e-05 0)
(1.41232e-10 -5.30713e-05 0)
(2.11476e-10 -0.000112182 0)
(2.85125e-10 -0.000193461 0)
(3.49428e-10 -0.000296331 0)
(4.29559e-10 -0.000420266 0)
(4.73235e-10 -0.000564634 0)
(5.87514e-10 -0.000728855 0)
(5.52196e-10 -0.000912327 0)
(8.17421e-10 -0.00111446 0)
(4.51416e-10 -0.00133465 0)
(1.33687e-09 -0.00157231 0)
(-5.66507e-10 -0.00182685 0)
(2.50972e-09 -0.00209766 0)
(-8.41023e-09 -0.00238415 0)
(-7.83833e-10 -0.00268574 0)
(-7.84349e-08 -0.0030018 0)
(-5.48091e-08 -0.00333173 0)
(2.99174e-07 -0.00367504 0)
(4.25427e-07 -0.00403098 0)
(3.56407e-07 -0.00439879 0)
(3.7229e-07 -0.00477786 0)
(3.62664e-07 -0.00516761 0)
(3.66041e-07 -0.00556743 0)
(3.64282e-07 -0.00597674 0)
(3.6511e-07 -0.00639493 0)
(3.64738e-07 -0.00682141 0)
(3.64952e-07 -0.00725559 0)
(3.64882e-07 -0.00769687 0)
(3.64949e-07 -0.00814466 0)
(3.64943e-07 -0.00859836 0)
(3.64967e-07 -0.00905738 0)
(3.64975e-07 -0.00952112 0)
(3.64987e-07 -0.00998898 0)
(3.64991e-07 -0.0104604 0)
(3.64996e-07 -0.0109347 0)
(3.64998e-07 -0.0114114 0)
(3.64993e-07 -0.0118898 0)
(3.64991e-07 -0.0123694 0)
(3.64997e-07 -0.0128494 -5.32041e-19)
(-1.69407e-21 8.47033e-22 0)
(1.19491e-05 -1.92853e-05 0)
(2.32873e-05 -5.4553e-05 0)
(3.4682e-05 -0.00011362 0)
(4.56041e-05 -0.000194856 0)
(5.62879e-05 -0.000297689 0)
(6.66549e-05 -0.000421585 0)
(7.67291e-05 -0.000565915 0)
(8.65044e-05 -0.000730097 0)
(9.59822e-05 -0.000913531 0)
(0.000105163 -0.00111562 0)
(0.000114045 -0.00133578 0)
(0.000122631 -0.0015734 0)
(0.000130916 -0.0018279 0)
(0.00013891 -0.00209867 0)
(0.00014659 -0.00238512 0)
(0.000154005 -0.00268666 0)
(0.000161022 -0.00300269 0)
(0.000167956 -0.00333268 0)
(0.000174797 -0.00367595 0)
(0.000180939 -0.00403175 0)
(0.000186663 -0.0043995 0)
(0.000192159 -0.00477855 0)
(0.000197337 -0.00516826 0)
(0.000202229 -0.00556804 0)
(0.000206819 -0.00597731 0)
(0.000211115 -0.00639546 0)
(0.000215111 -0.00682191 0)
(0.000218811 -0.00725605 0)
(0.000222213 -0.00769729 0)
(0.000225318 -0.00814504 0)
(0.000228125 -0.0085987 0)
(0.000230635 -0.00905768 0)
(0.000232848 -0.00952138 0)
(0.000234763 -0.00998921 0)
(0.000236381 -0.0104606 0)
(0.000237701 -0.0109349 0)
(0.000238722 -0.0114115 0)
(0.000239449 -0.0118899 0)
(0.000239866 -0.0123695 0)
(0.000240011 -0.0128496 5.32985e-19)
(5.18939e-06 -1.93247e-06 3.05496e-20)
(2.50407e-05 -2.26297e-05 2.13921e-20)
(4.67354e-05 -5.78564e-05 -3.03082e-20)
(6.95692e-05 -0.000116851 -6.13603e-21)
(9.14178e-05 -0.000197987 2.16956e-20)
(0.000112776 -0.000300739 -8.59392e-21)
(0.000133513 -0.000424547 7.52366e-20)
(0.00015366 -0.000568791 5.5602e-20)
(0.000173211 -0.000732887 2.76749e-21)
(0.000192166 -0.000916235 1.02094e-19)
(0.000210527 -0.00111824 7.25477e-20)
(0.000228291 -0.00133831 -1.01915e-19)
(0.000245462 -0.00157585 -1.3275e-19)
(0.000262035 -0.00183025 -4.055e-20)
(0.000278019 -0.00210094 3.09963e-20)
(0.000293395 -0.00238731 -5.60752e-20)
(0.000308215 -0.00268875 -1.35763e-19)
(0.000322402 -0.00300471 4.32454e-20)
(0.000336189 -0.00333467 1.34807e-19)
(0.000349361 -0.00367782 9.18511e-20)
(0.000361568 -0.00403347 -1.12228e-19)
(0.000373159 -0.00440113 -4.23396e-19)
(0.000384144 -0.0047801 -1.57437e-19)
(0.000394511 -0.00516972 3.25292e-19)
(0.000404294 -0.00556942 2.71808e-19)
(0.000413476 -0.0059786 5.17653e-20)
(0.000422066 -0.00639666 -6.44629e-20)
(0.00043006 -0.00682302 -6.47707e-20)
(0.000437459 -0.00725708 -5.11683e-21)
(0.000444264 -0.00769823 5.83972e-20)
(0.000450473 -0.0081459 6.0682e-20)
(0.000456088 -0.00859947 -1.93543e-19)
(0.000461108 -0.00905837 -1.28745e-19)
(0.000465533 -0.00952198 6.28059e-20)
(0.000469363 -0.00998972 -1.98549e-19)
(0.000472599 -0.010461 -6.49495e-20)
(0.00047524 -0.0109352 1.31238e-19)
(0.000477284 -0.0114118 6.57972e-20)
(0.000478743 -0.0118901 6.62085e-20)
(0.000479616 -0.0123696 -2.0041e-19)
(0.000479926 -0.0128498 6.65783e-19)
)
;

boundaryField
{
    top
    {
        type            calculated;
    }
    left
    {
        type            calculated;
    }
    right
    {
        type            calculated;
    }
    bottom
    {
        type            calculated;
    }
    front
    {
        type            empty;
    }
    back
    {
        type            empty;
    }
}


// ************************************************************************* //
