/*--------------------------------*- C++ -*----------------------------------*\
| =========                 |                                                 |
| \\      /  F ield         | foam-extend: Open Source CFD                    |
|  \\    /   O peration     | Version:     4.0                                |
|   \\  /    A nd           | Web:         http://www.foam-extend.org         |
|    \\/     M anipulation  |                                                 |
\*---------------------------------------------------------------------------*/
FoamFile
{
    version     2.0;
    format      ascii;
    class       volScalarField;
    location    "1";
    object      sigmaHyd;
}
// * * * * * * * * * * * * * * * * * * * * * * * * * * * * * * * * * * * * * //

dimensions      [1 -1 -2 0 0 0 0];

internalField   nonuniform List<scalar> 
160
(
-3.75908e+07
-3.43091e+07
-3.49976e+07
-3.34897e+07
-3.27746e+07
-3.18069e+07
-3.09086e+07
-2.99919e+07
-2.90798e+07
-2.81659e+07
-2.72542e+07
-2.63384e+07
-2.54309e+07
-2.45067e+07
-2.36123e+07
-2.26587e+07
-2.17565e+07
-2.07368e+07
-1.94178e+07
-1.86715e+07
-1.77975e+07
-1.6805e+07
-1.59314e+07
-1.49951e+07
-1.40929e+07
-1.31747e+07
-1.22646e+07
-1.13508e+07
-1.04388e+07
-9.52593e+06
-8.61352e+06
-7.70092e+06
-6.78846e+06
-5.87604e+06
-4.96343e+06
-4.05227e+06
-3.13778e+06
-2.23851e+06
-1.30422e+06
-364314
-9.89175e+06
-9.23353e+06
-9.2107e+06
-8.82213e+06
-8.61276e+06
-8.3608e+06
-8.1222e+06
-7.88156e+06
-7.64183e+06
-7.40121e+06
-7.16254e+06
-6.91981e+06
-6.68483e+06
-6.43371e+06
-6.20844e+06
-5.93595e+06
-5.698e+06
-5.57212e+06
-5.02222e+06
-4.61971e+06
-4.64568e+06
-4.37554e+06
-4.1879e+06
-3.93315e+06
-3.70505e+06
-3.46061e+06
-3.22347e+06
-2.98246e+06
-2.74329e+06
-2.50319e+06
-2.26351e+06
-2.02365e+06
-1.78389e+06
-1.54404e+06
-1.30393e+06
-1.06396e+06
-820194
-579650
-290920
-2278.66
9.89204e+06
9.23381e+06
9.21096e+06
8.8224e+06
8.61299e+06
8.3611e+06
8.12235e+06
7.88202e+06
7.64164e+06
7.40235e+06
7.16097e+06
6.92382e+06
6.67743e+06
6.45005e+06
6.17461e+06
5.99989e+06
5.47348e+06
5.65705e+06
3.39625e+06
5.01387e+06
4.42305e+06
4.44525e+06
4.15487e+06
3.94854e+06
3.69792e+06
3.46425e+06
3.22188e+06
2.9834e+06
2.74295e+06
2.50344e+06
2.2635e+06
2.02377e+06
1.78389e+06
1.54407e+06
1.30395e+06
1.06396e+06
820181
579635
290946
2281.46
3.75911e+07
3.43094e+07
3.49978e+07
3.34899e+07
3.27748e+07
3.18072e+07
3.09087e+07
2.99924e+07
2.90796e+07
2.8167e+07
2.72526e+07
2.63424e+07
2.54241e+07
2.45242e+07
2.35925e+07
2.27516e+07
2.18052e+07
2.12497e+07
2.00342e+07
1.86528e+07
1.78266e+07
1.68612e+07
1.59109e+07
1.50098e+07
1.40864e+07
1.31783e+07
1.22631e+07
1.13517e+07
1.04385e+07
9.52619e+06
8.6135e+06
7.70103e+06
6.78848e+06
5.87608e+06
4.96346e+06
4.05229e+06
3.13781e+06
2.23849e+06
1.30418e+06
364349
)
;

boundaryField
{
    top
    {
        type            zeroGradient;
    }
    left
    {
        type            zeroGradient;
    }
    right
    {
        type            zeroGradient;
    }
    bottom
    {
        type            zeroGradient;
    }
    front
    {
        type            empty;
    }
    back
    {
        type            empty;
    }
}


// ************************************************************************* //
