/*--------------------------------*- C++ -*----------------------------------*\
| =========                 |                                                 |
| \\      /  F ield         | foam-extend: Open Source CFD                    |
|  \\    /   O peration     | Version:     4.0                                |
|   \\  /    A nd           | Web:         http://www.foam-extend.org         |
|    \\/     M anipulation  |                                                 |
\*---------------------------------------------------------------------------*/
FoamFile
{
    version     2.0;
    format      ascii;
    class       volSymmTensorField;
    location    "1";
    object      sigma;
}
// * * * * * * * * * * * * * * * * * * * * * * * * * * * * * * * * * * * * * //

dimensions      [1 -1 -2 0 0 0 0];

internalField   nonuniform List<symmTensor> 
160
(
(-8.15206e+07 -5.28058e+06 -1.13509e-07 -5.22737e+06 2.47304e-08 -2.60244e+07)
(-7.57873e+07 -362531 -2.39408e-07 -3.38759e+06 -2.26096e-08 -2.37525e+07)
(-7.68265e+07 -418848 2.84607e-07 -3.93707e+06 -1.791e-07 -2.42291e+07)
(-7.35751e+07 -608173 1.49194e-06 -3.70872e+06 3.31419e-07 -2.31852e+07)
(-7.19974e+07 -522921 -1.34526e-06 -3.63619e+06 1.33273e-07 -2.26901e+07)
(-6.98657e+07 -556997 -9.49967e-07 -3.53498e+06 -4.43624e-07 -2.20202e+07)
(-6.78941e+07 -547062 9.83395e-07 -3.43342e+06 1.9945e-08 -2.13983e+07)
(-6.58796e+07 -550128 -1.11901e-06 -3.33256e+06 -1.93524e-08 -2.07636e+07)
(-6.38762e+07 -549387 1.25055e-06 -3.23103e+06 1.8764e-08 -2.01322e+07)
(-6.18686e+07 -549585 -1.37802e-06 -3.12956e+06 -1.81743e-08 -1.94995e+07)
(-5.98659e+07 -549511 1.38764e-06 -3.0283e+06 -9.22331e-07 -1.88683e+07)
(-5.78543e+07 -549607 2.43115e-06 -2.92654e+06 2.54925e-08 -1.82343e+07)
(-5.58604e+07 -549401 1.84222e-06 -2.82628e+06 1.10296e-06 -1.7606e+07)
(-5.38311e+07 -550669 -1.80633e-06 -2.7229e+06 4.46613e-07 -1.69662e+07)
(-5.18601e+07 -549942 9.37761e-07 -2.62981e+06 -4.8159e-07 -1.6347e+07)
(-4.97774e+07 -565841 3.78481e-08 -2.512e+06 5.14998e-07 -1.56868e+07)
(-4.77418e+07 -572966 -4.24012e-06 -2.46548e+06 1.05147e-06 -1.50622e+07)
(-4.56313e+07 -627633 -2.32001e-06 -2.22294e+06 -1.14015e-06 -1.43563e+07)
(-4.28698e+07 -788283 -2.34119e-06 -1.94059e+06 -1.27704e-08 -1.34431e+07)
(-4.09016e+07 -548434 -1.18348e-06 -2.18646e+06 6.01914e-07 -1.29264e+07)
(-3.90313e+07 -586579 -8.89619e-08 -2.03993e+06 -1.88439e-06 -1.23214e+07)
(-3.69026e+07 -551079 5.07561e-06 -1.8781e+06 -2.24402e-06 -1.16342e+07)
(-3.49876e+07 -552361 9.33604e-06 -1.77721e+06 7.01526e-07 -1.10294e+07)
(-3.29368e+07 -550162 4.15562e-06 -1.6674e+06 1.72146e-06 -1.03813e+07)
(-3.09555e+07 -549905 2.35355e-08 -1.56657e+06 6.98977e-07 -9.75663e+06)
(-2.89392e+07 -549641 -2.20027e-08 -1.46402e+06 -7.14154e-07 -9.12096e+06)
(-2.69402e+07 -549612 7.20537e-06 -1.3628e+06 -2.52933e-06 -8.49089e+06)
(-2.49328e+07 -549561 1.03909e-05 -1.26121e+06 7.67098e-07 -7.85821e+06)
(-2.29296e+07 -549567 3.03808e-06 -1.15988e+06 1.13713e-06 -7.22685e+06)
(-2.09245e+07 -549561 6.11278e-06 -1.05845e+06 1.22934e-08 -6.59487e+06)
(-1.89203e+07 -549569 4.65956e-06 -957055 7.83143e-07 -5.9632e+06)
(-1.69157e+07 -549560 3.12025e-06 -855674 -7.78919e-07 -5.33141e+06)
(-1.49114e+07 -549533 3.16537e-06 -754314 4.38027e-09 -4.69971e+06)
(-1.29071e+07 -549544 4.79036e-06 -652946 5.68726e-09 -4.06802e+06)
(-1.09023e+07 -549260 6.44371e-06 -551796 8.11443e-07 -3.43622e+06)
(-8.90058e+06 -549356 4.87021e-06 -450808 1.62404e-06 -2.80542e+06)
(-6.88955e+06 -546958 -1.3093e-08 -351484 -2.03515e-06 -2.17231e+06)
(-4.91147e+06 -545735 1.62914e-06 -254309 -8.16325e-07 -1.54973e+06)
(-2.8642e+06 -552244 4.914e-06 -145553 1.22987e-06 -902924)
(-938375 -637365 0 97651 0 -252217)
(-2.48839e+07 -7.36567e+06 2.00237e-08 2.0568e+06 6.08507e-08 -6.84813e+06)
(-2.41302e+07 -750081 4.16038e-07 2.82207e+06 -3.20413e-07 -6.39244e+06)
(-2.38999e+07 -1.12715e+06 3.69664e-07 2.64444e+06 -2.82858e-07 -6.37664e+06)
(-2.29297e+07 -1.43085e+06 1.86762e-08 2.57091e+06 2.77656e-07 -6.10763e+06)
(-2.24009e+07 -1.23615e+06 2.13761e-06 2.52532e+06 9.35065e-07 -5.96268e+06)
(-2.17385e+07 -1.3091e+06 1.66415e-06 2.44432e+06 -3.86812e-07 -5.78824e+06)
(-2.11219e+07 -1.2845e+06 -6.75421e-22 2.37834e+06 -4.38972e-21 -5.62306e+06)
(-2.04951e+07 -1.29126e+06 -1.11624e-06 2.30684e+06 -1.7238e-08 -5.45647e+06)
(-1.98719e+07 -1.28937e+06 -8.14712e-22 2.23693e+06 2.77148e-21 -5.2905e+06)
(-1.92465e+07 -1.28975e+06 1.37526e-06 2.16674e+06 1.61885e-08 -5.12392e+06)
(-1.86252e+07 -1.28963e+06 -2.34487e-22 2.09628e+06 -1.16247e-20 -4.95868e+06)
(-1.79955e+07 -1.28998e+06 -7.28103e-06 2.02673e+06 -6.81191e-08 -4.79063e+06)
(-1.73824e+07 -1.2896e+06 6.94144e-23 1.95591e+06 2.31656e-20 -4.62796e+06)
(-1.67367e+07 -1.2954e+06 1.83766e-06 1.88974e+06 -4.48472e-07 -4.4541e+06)
(-1.61503e+07 -1.28866e+06 4.87906e-06 1.82313e+06 3.39799e-08 -4.29815e+06)
(-1.54725e+07 -1.35916e+06 2.07345e-06 1.77416e+06 1.55848e-06 -4.10951e+06)
(-1.49152e+07 -1.28029e+06 6.44887e-06 1.76595e+06 -1.04164e-06 -3.94477e+06)
(-1.44283e+07 -1.6999e+06 4.50423e-06 1.56953e+06 1.151e-06 -3.85762e+06)
(-1.27667e+07 -1.19059e+06 -5.15688e-09 1.17699e+06 -5.86362e-07 -3.47692e+06)
(-1.20757e+07 -980826 4.836e-06 1.41483e+06 -2.41173e-06 -3.19826e+06)
(-1.21574e+07 -1.28249e+06 6.27314e-06 1.43657e+06 6.5407e-07 -3.21624e+06)
(-1.14003e+07 -1.24749e+06 0 1.30285e+06 0 -3.02922e+06)
(-1.08942e+07 -1.28581e+06 -2.66153e-06 1.22983e+06 -6.7487e-07 -2.89932e+06)
(-1.02327e+07 -1.28612e+06 4.09723e-06 1.15616e+06 1.37874e-06 -2.72295e+06)
(-9.63377e+06 -1.28884e+06 2.79463e-06 1.08366e+06 7.07208e-07 -2.56503e+06)
(-9.00001e+06 -1.28905e+06 2.84042e-06 1.01398e+06 -2.13528e-06 -2.39581e+06)
(-8.38203e+06 -1.28919e+06 1.45403e-06 943247 3.52483e-09 -2.23164e+06)
(-7.75587e+06 -1.2892e+06 -4.43782e-06 873276 7.31808e-07 -2.06478e+06)
(-7.13359e+06 -1.2892e+06 4.51376e-06 802920 8.99987e-09 -1.8992e+06)
(-6.50937e+06 -1.2892e+06 -3.05628e-06 732778 -7.70313e-07 -1.73298e+06)
(-5.88608e+06 -1.2892e+06 -3.09402e-06 662594 -4.9508e-09 -1.56705e+06)
(-5.26236e+06 -1.28918e+06 4.70195e-06 592400 2.35869e-06 -1.40099e+06)
(-4.63882e+06 -1.28914e+06 -3.1645e-06 522165 -7.95986e-07 -1.235e+06)
(-4.01518e+06 -1.28932e+06 3.18754e-06 452021 -1.59489e-06 -1.06895e+06)
(-3.3909e+06 -1.28894e+06 1.60471e-06 381838 -1.60891e-06 -902718)
(-2.76719e+06 -1.2909e+06 2.65815e-20 311909 9.32033e-19 -736584)
(-2.13489e+06 -1.28789e+06 8.13368e-06 242139 5.70382e-06 -567826)
(-1.51142e+06 -1.29926e+06 -8.15794e-06 173766 -8.20367e-07 -401296)
(-807089 -1.30455e+06 4.90567e-06 135736 -1.63722e-06 -201406)
(-206492 -1.10651e+06 1.63734e-06 201234 2.45988e-06 -1577.54)
(2.48845e+07 -7.36568e+06 8.89913e-08 -2.05675e+06 -1.97733e-08 6.84834e+06)
(2.41309e+07 -750082 1.96934e-08 -2.82207e+06 -1.20445e-07 6.39264e+06)
(2.39005e+07 -1.12715e+06 -3.98846e-07 -2.64445e+06 2.00312e-08 6.37682e+06)
(2.29303e+07 -1.43085e+06 -1.92135e-06 -2.57092e+06 6.74473e-08 6.10782e+06)
(2.24015e+07 -1.23615e+06 1.06424e-06 -2.52534e+06 -3.79681e-07 5.96284e+06)
(2.17392e+07 -1.3091e+06 -8.58638e-07 -2.44431e+06 4.41652e-07 5.78846e+06)
(2.11223e+07 -1.2845e+06 4.38698e-07 -2.37837e+06 1.47063e-06 5.62317e+06)
(2.04961e+07 -1.29126e+06 1.11624e-06 -2.3068e+06 -1.72386e-08 5.45679e+06)
(1.98716e+07 -1.28937e+06 3.23768e-08 -2.23701e+06 -1.25351e-06 5.29037e+06)
(1.92489e+07 -1.28974e+06 2.06289e-06 -2.16653e+06 -2.42847e-08 5.1247e+06)
(1.86219e+07 -1.28959e+06 2.20249e-06 -2.09658e+06 2.23309e-06 4.95759e+06)
(1.80037e+07 -1.28974e+06 2.42701e-06 -2.02569e+06 -2.27122e-08 4.79341e+06)
(1.73656e+07 -1.2888e+06 4.24419e-08 -1.95615e+06 -2.60851e-06 4.62283e+06)
(1.6767e+07 -1.2909e+06 1.86497e-06 -1.88227e+06 -1.40176e-06 4.46542e+06)
(1.60597e+07 -1.27767e+06 -9.62744e-07 -1.81057e+06 -9.71909e-07 4.27473e+06)
(1.55637e+07 -1.29818e+06 3.07569e-06 -1.71782e+06 4.95555e-07 4.15377e+06)
(1.42819e+07 -1.19497e+06 -1.16491e-08 -1.65077e+06 1.0797e-06 3.78933e+06)
(1.46325e+07 -1.3415e+06 -1.18972e-08 -1.57773e+06 1.12726e-06 3.91642e+06)
(8.55627e+06 -2.33434e+06 4.00117e-06 -718766 -1.42707e-06 2.35125e+06)
(1.31255e+07 -1.26989e+06 1.60778e-08 -1.55504e+06 -1.82363e-06 3.47114e+06)
(1.15785e+07 -1.24034e+06 1.26312e-06 -1.37146e+06 -1.26134e-06 3.06211e+06)
(1.15463e+07 -1.29549e+06 -2.58417e-06 -1.28799e+06 9.69329e-09 3.07748e+06)
(1.08121e+07 -1.28543e+06 -5.30977e-06 -1.22395e+06 -6.47489e-07 2.87645e+06)
(1.02641e+07 -1.28939e+06 -1.36714e-06 -1.15209e+06 6.87227e-07 2.7336e+06)
(9.61801e+06 -1.28896e+06 2.77895e-06 -1.08434e+06 2.08923e-06 2.5601e+06)
(9.00762e+06 -1.28922e+06 1.42938e-06 -1.01319e+06 -7.18073e-07 2.39833e+06)
(8.37865e+06 -1.28921e+06 -1.44721e-06 -943529 -1.45337e-06 2.23054e+06)
(7.75783e+06 -1.28921e+06 4.10873e-22 -873069 -9.05495e-25 2.06543e+06)
(7.13292e+06 -1.28921e+06 -5.81086e-09 -803031 1.50745e-06 1.89897e+06)
(6.50996e+06 -1.2892e+06 -1.32583e-08 -732781 3.82419e-06 1.73315e+06)
(5.88604e+06 -1.2892e+06 7.19258e-09 -662568 -2.32481e-06 1.56704e+06)
(5.26259e+06 -1.28918e+06 4.28715e-09 -592352 -1.56804e-06 1.40107e+06)
(4.63887e+06 -1.28914e+06 -1.88953e-09 -522213 7.92085e-07 1.235e+06)
(4.01528e+06 -1.28932e+06 4.90658e-09 -452039 -2.3974e-06 1.06897e+06)
(3.39095e+06 -1.28894e+06 -3.22048e-06 -381823 3.22353e-06 902737)
(2.76722e+06 -1.29091e+06 -8.08755e-06 -311920 5.8204e-09 736591)
(2.1349e+06 -1.28789e+06 -3.58748e-21 -242174 -1.55619e-19 567818)
(1.51138e+06 -1.29925e+06 3.26293e-06 -173762 -1.27686e-09 401286)
(807095 -1.30454e+06 1.34486e-09 -135680 -3.27669e-06 201424)
(206527 -1.10652e+06 -2.84422e-10 -201262 4.09905e-06 1579.47)
(8.15212e+07 -5.2806e+06 2.41595e-07 5.2274e+06 -9.39987e-08 2.60246e+07)
(7.5788e+07 -362532 -1.81637e-07 3.3876e+06 -3.76448e-08 2.37527e+07)
(7.68271e+07 -418849 -5.18187e-07 3.93707e+06 2.24157e-07 2.42293e+07)
(7.35758e+07 -608174 -4.68103e-07 3.70871e+06 -1.86397e-07 2.31853e+07)
(7.1998e+07 -522922 -1.75e-06 3.63618e+06 5.28857e-08 2.26903e+07)
(6.98664e+07 -556997 4.41937e-22 3.53498e+06 4.17239e-21 2.20204e+07)
(6.78944e+07 -547065 -1.37185e-06 3.43341e+06 -4.62995e-07 2.13984e+07)
(6.58806e+07 -550123 1.09396e-06 3.33259e+06 1.20829e-07 2.0764e+07)
(6.38758e+07 -549399 -1.22626e-06 3.23099e+06 -1.37859e-07 2.0132e+07)
(6.18711e+07 -549556 -1.99647e-06 3.12967e+06 -4.9041e-07 1.95002e+07)
(5.98626e+07 -549536 -3.75357e-06 3.02812e+06 4.39623e-08 1.88672e+07)
(5.78631e+07 -549343 2.36516e-06 2.92696e+06 5.83207e-07 1.8237e+07)
(5.58454e+07 -549061 -1.75727e-06 2.82566e+06 2.33715e-07 1.76013e+07)
(5.3869e+07 -546983 -1.84725e-06 2.72529e+06 1.5824e-08 1.69783e+07)
(5.18131e+07 -542142 -4.86633e-06 2.63106e+06 -2.06571e-07 1.63333e+07)
(4.9971e+07 -514059 -5.18189e-06 2.53271e+06 5.5165e-07 1.57511e+07)
(4.77857e+07 -490645 -2.17492e-06 2.5341e+06 2.83816e-07 1.50959e+07)
(4.66629e+07 -238790 -2.21802e-06 2.37478e+06 -5.49941e-07 1.47113e+07)
(4.4503e+07 -194424 -2.32706e-06 1.72972e+06 -2.79638e-07 1.38698e+07)
(4.10559e+07 -866169 -3.62412e-06 1.98894e+06 -2.856e-07 1.29134e+07)
(3.90482e+07 -543018 -7.57394e-06 2.09015e+06 9.76232e-07 1.23415e+07)
(3.70262e+07 -591347 -2.65721e-06 1.88424e+06 1.62928e-06 1.16731e+07)
(3.49403e+07 -551608 -1.30335e-06 1.77726e+06 -6.6044e-07 1.10153e+07)
(3.2969e+07 -552909 -6.77157e-06 1.66911e+06 -1.34136e-06 1.03914e+07)
(3.09412e+07 -549799 -5.57516e-06 1.56593e+06 -3.31311e-07 9.75214e+06)
(2.8947e+07 -549852 -4.28126e-06 1.46438e+06 1.27549e-08 9.12343e+06)
(2.69368e+07 -549573 -7.2873e-06 1.36263e+06 3.8394e-07 8.48982e+06)
(2.49348e+07 -549589 -5.92682e-06 1.26131e+06 1.46495e-08 7.85885e+06)
(2.29289e+07 -549558 -7.52983e-06 1.15983e+06 1.68388e-08 7.22663e+06)
(2.09251e+07 -549568 -3.04843e-06 1.05845e+06 -3.76207e-07 6.59506e+06)
(1.89202e+07 -549569 -1.54839e-06 957060 2.77896e-09 5.96319e+06)
(1.69159e+07 -549563 -7.85206e-06 855684 1.18825e-06 5.33148e+06)
(1.49114e+07 -549532 5.66864e-09 754299 -3.95977e-07 4.69972e+06)
(1.29072e+07 -549543 -7.98394e-06 652953 9.47883e-09 4.06806e+06)
(1.09023e+07 -549260 -4.839e-06 551806 1.21236e-06 3.43624e+06)
(8.90062e+06 -549356 3.24455e-06 450819 -8.12671e-07 2.80543e+06)
(6.88957e+06 -546959 -8.1345e-06 351523 5.05375e-09 2.17233e+06)
(4.91146e+06 -545743 3.26762e-06 254300 -4.0996e-07 1.54973e+06)
(2.86417e+06 -552231 -9.82147e-06 145472 2.52274e-09 902892)
(938419 -637358 -1.63967e-06 -97614.2 1.23077e-06 252242)
)
;

boundaryField
{
    top
    {
        type            calculated;
        value           nonuniform List<symmTensor> 
40
(
(7.92809e+07 13.0128 2.41595e-07 -12.159 2.89007e-14 2.37843e+07)
(7.43361e+07 -0.277368 -1.81637e-07 1.06649 2.82466e-14 2.23008e+07)
(7.51398e+07 -22.3264 -5.18187e-07 4.52166 1.2842e-13 2.25419e+07)
(7.19863e+07 -43.1697 -4.68103e-07 5.48483 -1.14972e-13 2.15959e+07)
(7.04396e+07 -64.3109 -1.75e-06 6.31256 7.24155e-14 2.11319e+07)
(6.83514e+07 -86.2602 4.41937e-22 7.08646 3.75969e-27 2.05054e+07)
(6.6423e+07 -109.111 -1.37185e-06 7.77969 -4.41911e-13 1.99269e+07)
(6.44523e+07 -132.787 1.09396e-06 8.16186 1.19109e-13 1.93357e+07)
(6.24911e+07 -156.491 -1.22626e-06 7.93507 -1.45601e-13 1.87473e+07)
(6.05298e+07 -178.838 -1.99647e-06 7.05144 -5.54146e-13 1.8159e+07)
(5.85648e+07 -198.961 -3.75357e-06 5.92518 6.73472e-14 1.75694e+07)
(5.66087e+07 -217.407 2.36516e-06 5.21525 6.85016e-13 1.69826e+07)
(5.46344e+07 -235.753 -1.75727e-06 5.397 2.87107e-13 1.63903e+07)
(5.2701e+07 -255.433 -1.84725e-06 6.36509 2.52566e-14 1.58103e+07)
(5.06855e+07 -276.674 -4.86633e-06 7.34429 -2.44177e-13 1.52057e+07)
(4.88855e+07 -298.071 -5.18189e-06 7.60135 7.23497e-13 1.46657e+07)
(4.66997e+07 -317.932 -2.17492e-06 7.07128 3.76555e-13 1.40099e+07)
(4.56452e+07 -336.396 -2.21802e-06 6.70328 -7.23193e-13 1.36936e+07)
(4.37617e+07 -354.667 -2.32706e-06 6.94648 -3.69895e-13 1.31285e+07)
(4.02035e+07 -373.969 -3.62412e-06 7.96538 -3.83749e-13 1.2061e+07)
(3.81524e+07 -395.204 -7.57394e-06 9.61993 1.3756e-12 1.14457e+07)
(3.62187e+07 -418.159 -2.65721e-06 10.4012 2.34155e-12 1.08656e+07)
(3.41786e+07 -440.445 -1.30335e-06 9.35867 -9.67626e-13 1.02536e+07)
(3.22536e+07 -458.901 -6.77157e-06 6.88029 -1.98974e-12 9.6761e+06)
(3.02701e+07 -473.432 -5.57516e-06 4.19855 -4.94187e-13 9.08103e+06)
(2.83195e+07 -485.051 -4.28126e-06 2.48286 2.01694e-14 8.49584e+06)
(2.63528e+07 -493.322 -7.2873e-06 2.10891 5.85265e-13 7.90584e+06)
(2.43943e+07 -500.934 -5.92682e-06 2.33014 3.12908e-14 7.31829e+06)
(2.24319e+07 -511.136 -7.52983e-06 2.86173 2.96386e-14 6.72956e+06)
(2.04714e+07 -524.342 -3.04843e-06 4.58936 -5.7224e-13 6.14144e+06)
(1.85101e+07 -537.946 -1.54839e-06 6.25638 5.92173e-15 5.55302e+06)
(1.65492e+07 -548.623 -7.85206e-06 4.51803 1.85437e-12 4.96476e+06)
(1.45882e+07 -552.561 5.66864e-09 1.38247 -6.13466e-13 4.37645e+06)
(1.26274e+07 -555.374 -7.98394e-06 1.7186 2.54221e-14 3.78822e+06)
(1.06658e+07 -566.408 -4.839e-06 2.17284 1.89892e-12 3.19975e+06)
(8.70742e+06 -571.155 3.24455e-06 0.651655 -1.26807e-12 2.61223e+06)
(6.73892e+06 -573.907 -8.1345e-06 0.490733 -1.99484e-15 2.02168e+06)
(4.80247e+06 -578.447 3.26762e-06 1.10961 -6.47135e-13 1.44074e+06)
(2.80182e+06 -577.417 -9.82147e-06 1.57617 4.36727e-14 840548)
(980255 -579.986 -1.63967e-06 2.1939 1.9411e-12 294077)
)
;
    }
    left
    {
        type            calculated;
        value           nonuniform List<symmTensor> 4((-9.19421e+07 -2.14487e+06 -1.13509e-07 -9.69374e+06 2.47304e-08 -3.04908e+07) (-2.60541e+07 145122 2.00237e-08 1.55528e+06 6.08507e-08 -7.34965e+06) (2.60547e+07 145096 8.89913e-08 -1.55524e+06 -1.97733e-08 7.34984e+06) (9.19428e+07 -2.14494e+06 2.41595e-07 9.69378e+06 -9.39987e-08 3.0491e+07));
    }
    right
    {
        type            calculated;
        value           nonuniform List<symmTensor> 4((-0.535893 -999419 0 499811 0 149943) (-2.41767 -999419 2.58438e-12 289729 2.45988e-06 86918.1) (-0.679525 -999418 -4.82535e-16 -289774 4.09905e-06 -86932.3) (1.1414 -999419 -2.58789e-12 -499793 1.23077e-06 -149938));
    }
    bottom
    {
        type            calculated;
        value           nonuniform List<symmTensor> 
40
(
(-7.92803e+07 12.9394 -1.13509e-07 10.2219 -1.15444e-13 -2.37841e+07)
(-7.43355e+07 -0.298079 -2.39408e-07 -2.40471 -2.88348e-14 -2.23007e+07)
(-7.51392e+07 -22.2715 2.84607e-07 -5.13583 -6.96794e-14 -2.25418e+07)
(-7.19857e+07 -43.0257 1.49194e-06 -5.71803 2.6273e-13 -2.15957e+07)
(-7.04391e+07 -64.2683 -1.34526e-06 -6.53607 8.52967e-14 -2.11317e+07)
(-6.83507e+07 -86.3954 -9.49967e-07 -7.36302 -4.12423e-13 -2.05052e+07)
(-6.64226e+07 -109.259 9.83395e-07 -8.01192 2.90551e-14 -1.99268e+07)
(-6.44513e+07 -132.8 -1.11901e-06 -8.11099 -2.90439e-14 -1.93354e+07)
(-6.24914e+07 -156.364 1.25055e-06 -7.46884 2.82445e-14 -1.87474e+07)
(-6.05274e+07 -178.688 -1.37802e-06 -6.3913 -2.68943e-14 -1.81582e+07)
(-5.85681e+07 -198.957 1.38764e-06 -5.59011 -1.07852e-12 -1.75704e+07)
(-5.66001e+07 -217.567 2.43115e-06 -5.58316 3.87236e-14 -1.698e+07)
(-5.46491e+07 -235.889 1.84222e-06 -6.27072 1.33568e-12 -1.63947e+07)
(-5.26641e+07 -255.435 -1.80633e-06 -7.01761 5.40771e-13 -1.57992e+07)
(-5.07331e+07 -276.585 9.37761e-07 -7.1428 -6.01249e-13 -1.52199e+07)
(-4.87008e+07 -297.991 3.78481e-08 -6.47916 6.61673e-13 -1.46102e+07)
(-4.66851e+07 -317.882 -4.24012e-06 -5.76602 1.36618e-12 -1.40055e+07)
(-4.46786e+07 -336.206 -2.32001e-06 -5.9839 -1.51604e-12 -1.34036e+07)
(-4.20381e+07 -354.599 -2.34119e-06 -7.18294 -2.30642e-14 -1.26114e+07)
(-3.99646e+07 -374.134 -1.18348e-06 -8.78201 8.20127e-13 -1.19894e+07)
(-3.8157e+07 -395.425 -8.89619e-08 -9.84793 -2.63406e-12 -1.14471e+07)
(-3.60977e+07 -418.274 5.07561e-06 -9.59097 -3.20788e-12 -1.08293e+07)
(-3.42259e+07 -440.165 9.33604e-06 -8.0215 1.05064e-12 -1.02678e+07)
(-3.22222e+07 -458.857 4.15562e-06 -6.01635 2.57369e-12 -9.66666e+06)
(-3.02842e+07 -473.817 2.35355e-08 -4.27909 1.05209e-12 -9.08525e+06)
(-2.83118e+07 -484.672 -2.20027e-08 -2.62306 -1.07619e-12 -8.49353e+06)
(-2.63561e+07 -492.665 7.20537e-06 -1.90621 -3.7948e-12 -7.90684e+06)
(-2.43923e+07 -501.666 1.03909e-05 -3.44308 1.16651e-12 -7.3177e+06)
(-2.24325e+07 -512.301 3.03808e-06 -5.69648 1.72099e-12 -6.72976e+06)
(-2.04709e+07 -523.893 6.11278e-06 -5.50647 2.61569e-14 -6.14126e+06)
(-1.85101e+07 -536.551 4.65956e-06 -2.88195 1.20771e-12 -5.55304e+06)
(-1.6549e+07 -548.297 3.12025e-06 -0.598011 -1.21029e-12 -4.96469e+06)
(-1.45881e+07 -553.234 3.16537e-06 -1.4082 5.04409e-15 -4.37643e+06)
(-1.26273e+07 -556.531 4.79036e-06 -4.76162 1.59819e-14 -3.78819e+06)
(-1.06658e+07 -566.138 6.44371e-06 -3.99667 1.27964e-12 -3.19974e+06)
(-8.70738e+06 -570.2 4.87021e-06 0.164576 2.52655e-12 -2.61221e+06)
(-6.73891e+06 -574.524 -1.3093e-08 -0.078445 -3.18925e-12 -2.02167e+06)
(-4.80249e+06 -577.996 1.62914e-06 -2.34564 -1.28021e-12 -1.44075e+06)
(-2.80182e+06 -576.518 4.914e-06 -2.01318 1.92083e-12 -840545)
(-980225 -580.077 0 -0.137821 0 -294068)
)
;
    }
    front
    {
        type            empty;
    }
    back
    {
        type            empty;
    }
}


// ************************************************************************* //
