/*--------------------------------*- C++ -*----------------------------------*\
| =========                 |                                                 |
| \\      /  F ield         | foam-extend: Open Source CFD                    |
|  \\    /   O peration     | Version:     4.0                                |
|   \\  /    A nd           | Web:         http://www.foam-extend.org         |
|    \\/     M anipulation  |                                                 |
\*---------------------------------------------------------------------------*/
FoamFile
{
    version     2.0;
    format      ascii;
    class       volScalarField;
    location    "1";
    object      sigmaEq;
}
// * * * * * * * * * * * * * * * * * * * * * * * * * * * * * * * * * * * * * //

dimensions      [1 -1 -2 0 0 0 0];

internalField   nonuniform List<scalar> 
160
(
6.89214e+07
6.46717e+07
6.5162e+07
6.2458e+07
6.11112e+07
5.9298e+07
5.76262e+07
5.59161e+07
5.42164e+07
5.25129e+07
5.08136e+07
4.91068e+07
4.74145e+07
4.56933e+07
4.40158e+07
4.22592e+07
4.04879e+07
3.88071e+07
3.65866e+07
3.46311e+07
3.30874e+07
3.13226e+07
2.97015e+07
2.79667e+07
2.62869e+07
2.45773e+07
2.28823e+07
2.11804e+07
1.94823e+07
1.77829e+07
1.60847e+07
1.43869e+07
1.26901e+07
1.09948e+07
9.30066e+06
7.61264e+06
5.92068e+06
4.2694e+06
2.61161e+06
1.43248e+06
2.69806e+07
2.37628e+07
2.34592e+07
2.25927e+07
2.20539e+07
2.14158e+07
2.08134e+07
2.02035e+07
1.95966e+07
1.89882e+07
1.83835e+07
1.77724e+07
1.71752e+07
1.65548e+07
1.59836e+07
1.53666e+07
1.48502e+07
1.43955e+07
1.24678e+07
1.1997e+07
1.21708e+07
1.13918e+07
1.0906e+07
1.02731e+07
9.6982e+06
9.09648e+06
8.51e+06
7.92007e+06
7.33691e+06
6.75703e+06
6.18396e+06
5.61845e+06
5.06363e+06
4.52347e+06
4.00268e+06
3.51441e+06
3.05892e+06
2.69549e+06
2.40629e+06
1.94879e+06
2.69811e+07
2.37633e+07
2.34598e+07
2.25933e+07
2.20544e+07
2.14164e+07
2.08138e+07
2.02043e+07
1.95964e+07
1.89902e+07
1.83808e+07
1.77788e+07
1.71604e+07
1.65743e+07
1.58911e+07
1.53855e+07
1.41793e+07
1.4467e+07
9.1282e+06
1.31085e+07
1.15999e+07
1.15231e+07
1.08298e+07
1.02983e+07
9.68517e+06
9.10249e+06
8.50733e+06
7.92159e+06
7.33644e+06
6.75752e+06
6.18391e+06
5.6186e+06
5.06371e+06
4.52356e+06
4.0027e+06
3.51444e+06
3.05894e+06
2.69546e+06
2.40627e+06
1.94882e+06
6.89219e+07
6.46723e+07
6.51626e+07
6.24586e+07
6.11117e+07
5.92987e+07
5.76266e+07
5.5917e+07
5.42161e+07
5.2515e+07
5.08108e+07
4.91142e+07
4.74017e+07
4.5725e+07
4.39728e+07
4.24128e+07
4.04696e+07
3.95909e+07
3.81809e+07
3.49433e+07
3.30606e+07
3.14297e+07
2.96594e+07
2.79941e+07
2.62746e+07
2.4584e+07
2.28794e+07
2.11821e+07
1.94817e+07
1.77834e+07
1.60847e+07
1.43871e+07
1.26902e+07
1.09949e+07
9.30069e+06
7.61267e+06
5.92068e+06
4.26939e+06
2.61164e+06
1.43247e+06
)
;

boundaryField
{
    top
    {
        type            calculated;
        value           nonuniform List<scalar> 
40
(
7.04664e+07
6.60714e+07
6.67857e+07
6.39828e+07
6.26081e+07
6.0752e+07
5.9038e+07
5.72865e+07
5.55433e+07
5.38001e+07
5.20535e+07
5.03149e+07
4.85601e+07
4.68417e+07
4.50503e+07
4.34504e+07
4.15076e+07
4.05703e+07
3.88963e+07
3.57336e+07
3.39106e+07
3.21918e+07
3.03786e+07
2.86677e+07
2.69046e+07
2.51709e+07
2.34229e+07
2.16821e+07
1.99379e+07
1.81954e+07
1.64521e+07
1.47093e+07
1.29662e+07
1.12235e+07
9.48e+06
7.73932e+06
5.98968e+06
4.26853e+06
2.49031e+06
871268
)
;
    }
    left
    {
        type            calculated;
        value           nonuniform List<scalar> 4(7.4166e+07 2.44086e+07 2.44091e+07 7.41665e+07);
    }
    right
    {
        type            calculated;
        value           nonuniform List<scalar> 4(1.78714e+06 1.75009e+06 1.7501e+06 1.78713e+06);
    }
    bottom
    {
        type            calculated;
        value           nonuniform List<scalar> 
40
(
7.04659e+07
6.60709e+07
6.67852e+07
6.39823e+07
6.26076e+07
6.07514e+07
5.90377e+07
5.72856e+07
5.55436e+07
5.37979e+07
5.20565e+07
5.03072e+07
4.85732e+07
4.68089e+07
4.50925e+07
4.32862e+07
4.14947e+07
3.97112e+07
3.73643e+07
3.55213e+07
3.39147e+07
3.20843e+07
3.04207e+07
2.86397e+07
2.69172e+07
2.5164e+07
2.34258e+07
2.16804e+07
1.99385e+07
1.81949e+07
1.64522e+07
1.47091e+07
1.29662e+07
1.12234e+07
9.47996e+06
7.73929e+06
5.98968e+06
4.26854e+06
2.49031e+06
871244
)
;
    }
    front
    {
        type            empty;
    }
    back
    {
        type            empty;
    }
}


// ************************************************************************* //
