/*--------------------------------*- C++ -*----------------------------------*\
| =========                 |                                                 |
| \\      /  F ield         | foam-extend: Open Source CFD                    |
|  \\    /   O peration     | Version:     4.0                                |
|   \\  /    A nd           | Web:         http://www.foam-extend.org         |
|    \\/     M anipulation  |                                                 |
\*---------------------------------------------------------------------------*/
FoamFile
{
    version     2.0;
    format      ascii;
    class       volVectorField;
    location    "1";
    object      D;
}
// * * * * * * * * * * * * * * * * * * * * * * * * * * * * * * * * * * * * * //

dimensions      [0 1 0 0 0 0 0];

internalField   nonuniform List<vector> 
640
(
(-6.11322e-06 -4.34212e-06 0)
(-1.68381e-05 -1.10332e-05 0)
(-2.82683e-05 -2.44041e-05 0)
(-3.92325e-05 -4.40175e-05 0)
(-5.0206e-05 -6.99168e-05 0)
(-6.09824e-05 -0.000102031 0)
(-7.16381e-05 -0.000140269 0)
(-8.21417e-05 -0.000184553 0)
(-9.25048e-05 -0.0002348 0)
(-0.000102723 -0.000290926 0)
(-0.000112797 -0.000352851 0)
(-0.000122729 -0.000420492 0)
(-0.000132515 -0.000493767 0)
(-0.000142159 -0.000572592 0)
(-0.000151655 -0.000656889 0)
(-0.000161014 -0.000746569 0)
(-0.00017021 -0.000841562 0)
(-0.000179269 -0.000941745 0)
(-0.000188175 -0.00104702 0)
(-0.000196856 -0.00115742 0)
(-0.000205483 -0.00127279 0)
(-0.000213926 -0.001393 0)
(-0.000222262 -0.00151801 0)
(-0.000230441 -0.00164774 0)
(-0.000238484 -0.00178211 0)
(-0.00024638 -0.00192103 0)
(-0.000254134 -0.00206442 0)
(-0.000261744 -0.0022122 0)
(-0.00026921 -0.00236429 0)
(-0.000276533 -0.00252061 0)
(-0.000283712 -0.00268107 0)
(-0.000290747 -0.00284559 0)
(-0.000297638 -0.00301408 0)
(-0.000304385 -0.00318648 0)
(-0.000310989 -0.00336269 0)
(-0.000317449 -0.00354263 0)
(-0.000323765 -0.00372623 0)
(-0.000329938 -0.00391339 0)
(-0.000335967 -0.00410404 0)
(-0.000341852 -0.00429809 0)
(-0.000347594 -0.00449546 0)
(-0.000353191 -0.00469607 0)
(-0.000358645 -0.00489985 0)
(-0.000363956 -0.00510669 0)
(-0.000369122 -0.00531653 0)
(-0.000374145 -0.00552928 0)
(-0.000379024 -0.00574487 0)
(-0.00038376 -0.00596319 0)
(-0.000388352 -0.00618419 0)
(-0.0003928 -0.00640776 0)
(-0.000397104 -0.00663384 0)
(-0.000401265 -0.00686233 0)
(-0.000405282 -0.00709316 0)
(-0.000409156 -0.00732625 0)
(-0.000412885 -0.00756151 0)
(-0.000416471 -0.00779886 0)
(-0.000419914 -0.00803821 0)
(-0.000423213 -0.0082795 0)
(-0.000426368 -0.00852262 0)
(-0.000429379 -0.00876751 0)
(-0.000432247 -0.00901408 0)
(-0.000434971 -0.00926225 0)
(-0.000437551 -0.00951193 0)
(-0.000439988 -0.00976304 0)
(-0.000442281 -0.0100155 0)
(-0.00044443 -0.0102692 0)
(-0.000446436 -0.0105242 0)
(-0.000448298 -0.0107802 0)
(-0.000450017 -0.0110372 0)
(-0.000451592 -0.0112952 0)
(-0.000453023 -0.0115541 0)
(-0.00045431 -0.0118137 0)
(-0.000455454 -0.012074 0)
(-0.000456455 -0.012335 0)
(-0.000457309 -0.0125964 0)
(-0.000458023 -0.0128584 0)
(-0.000458588 -0.0131206 0)
(-0.000459015 -0.0133832 0)
(-0.000459306 -0.013646 0)
(-0.000459466 -0.0139089 0)
(-3.87045e-06 -2.32195e-06 0)
(-1.19266e-05 -8.79663e-06 0)
(-2.00777e-05 -2.21753e-05 0)
(-2.79542e-05 -4.1827e-05 0)
(-3.57979e-05 -6.77485e-05 0)
(-4.34983e-05 -9.98944e-05 0)
(-5.11105e-05 -0.00013816 0)
(-5.86131e-05 -0.000182474 0)
(-6.60155e-05 -0.000232748 0)
(-7.33141e-05 -0.000288904 0)
(-8.05102e-05 -0.000350857 0)
(-8.76039e-05 -0.000418527 0)
(-9.45937e-05 -0.00049183 0)
(-0.000101483 -0.000570684 0)
(-0.000108265 -0.00065501 0)
(-0.000114954 -0.000744719 0)
(-0.000121526 -0.000839746 0)
(-0.000128021 -0.000939949 0)
(-0.000134405 -0.00104525 0)
(-0.000140506 -0.00115571 0)
(-0.000146695 -0.00127109 0)
(-0.000152721 -0.00139132 0)
(-0.000158678 -0.00151636 0)
(-0.00016452 -0.00164612 0)
(-0.000170266 -0.00178052 0)
(-0.000175906 -0.00191947 0)
(-0.000181445 -0.00206289 0)
(-0.00018688 -0.0022107 0)
(-0.000192213 -0.00236282 0)
(-0.000197443 -0.00251916 0)
(-0.000202571 -0.00267965 0)
(-0.000207596 -0.0028442 0)
(-0.000212518 -0.00301273 0)
(-0.000217338 -0.00318515 0)
(-0.000222055 -0.00336139 0)
(-0.000226669 -0.00354136 0)
(-0.000231181 -0.00372498 0)
(-0.00023559 -0.00391217 0)
(-0.000239896 -0.00410285 0)
(-0.0002441 -0.00429693 0)
(-0.000248201 -0.00449433 0)
(-0.000252199 -0.00469497 0)
(-0.000256095 -0.00489877 0)
(-0.000259888 -0.00510565 0)
(-0.000263578 -0.00531552 0)
(-0.000267166 -0.0055283 0)
(-0.000270651 -0.00574391 0)
(-0.000274034 -0.00596226 0)
(-0.000277314 -0.00618328 0)
(-0.000280491 -0.00640689 0)
(-0.000283566 -0.00663299 0)
(-0.000286537 -0.00686152 0)
(-0.000289407 -0.00709238 0)
(-0.000292174 -0.00732549 0)
(-0.000294838 -0.00756078 0)
(-0.000297399 -0.00779816 0)
(-0.000299858 -0.00803754 0)
(-0.000302214 -0.00827885 0)
(-0.000304468 -0.00852201 0)
(-0.000306619 -0.00876693 0)
(-0.000308667 -0.00901352 0)
(-0.000310613 -0.00926172 0)
(-0.000312456 -0.00951143 0)
(-0.000314196 -0.00976257 0)
(-0.000315834 -0.0100151 0)
(-0.00031737 -0.0102688 0)
(-0.000318802 -0.0105238 0)
(-0.000320132 -0.0107798 0)
(-0.00032136 -0.0110369 0)
(-0.000322485 -0.0112949 0)
(-0.000323507 -0.0115538 0)
(-0.000324427 -0.0118135 0)
(-0.000325244 -0.0120738 0)
(-0.000325959 -0.0123348 0)
(-0.000326569 -0.0125963 0)
(-0.00032708 -0.0128582 0)
(-0.000327476 -0.0131205 0)
(-0.000327777 -0.0133831 0)
(-0.000327976 -0.0136459 0)
(-0.000328054 -0.0139089 0)
(-2.21339e-06 -1.28834e-06 0)
(-7.10653e-06 -7.49591e-06 0)
(-1.19997e-05 -2.08889e-05 0)
(-1.6741e-05 -4.05564e-05 0)
(-2.1451e-05 -6.64984e-05 0)
(-2.60721e-05 -9.86636e-05 0)
(-3.064e-05 -0.000136946 0)
(-3.51415e-05 -0.000181276 0)
(-3.95829e-05 -0.000231567 0)
(-4.39621e-05 -0.00028774 0)
(-4.82796e-05 -0.000349709 0)
(-5.2536e-05 -0.000417395 0)
(-5.67296e-05 -0.000490715 0)
(-6.08645e-05 -0.000569586 0)
(-6.49327e-05 -0.000653926 0)
(-6.89568e-05 -0.000743651 0)
(-7.28884e-05 -0.000838684 0)
(-7.68994e-05 -0.000938918 0)
(-8.05469e-05 -0.00104429 0)
(-8.41241e-05 -0.00115472 0)
(-8.79487e-05 -0.0012701 0)
(-9.15642e-05 -0.00139036 0)
(-9.51505e-05 -0.00151542 0)
(-9.86555e-05 -0.00164519 0)
(-0.000102104 -0.0017796 0)
(-0.000105488 -0.00191857 0)
(-0.000108811 -0.00206201 0)
(-0.000112073 -0.00220983 0)
(-0.000115273 -0.00236197 0)
(-0.000118411 -0.00251833 0)
(-0.000121487 -0.00267883 0)
(-0.000124502 -0.0028434 0)
(-0.000127455 -0.00301194 0)
(-0.000130347 -0.00318438 0)
(-0.000133177 -0.00336064 0)
(-0.000135946 -0.00354063 0)
(-0.000138653 -0.00372427 0)
(-0.000141298 -0.00391147 0)
(-0.000143882 -0.00410216 0)
(-0.000146404 -0.00429626 0)
(-0.000148865 -0.00449368 0)
(-0.000151264 -0.00469434 0)
(-0.000153601 -0.00489816 0)
(-0.000155877 -0.00510505 0)
(-0.000158091 -0.00531493 0)
(-0.000160244 -0.00552773 0)
(-0.000162335 -0.00574336 0)
(-0.000164364 -0.00596173 0)
(-0.000166332 -0.00618277 0)
(-0.000168239 -0.00640639 0)
(-0.000170083 -0.00663251 0)
(-0.000171867 -0.00686105 0)
(-0.000173588 -0.00709193 0)
(-0.000175248 -0.00732506 0)
(-0.000176847 -0.00756036 0)
(-0.000178383 -0.00779775 0)
(-0.000179859 -0.00803716 0)
(-0.000181272 -0.00827848 0)
(-0.000182625 -0.00852166 0)
(-0.000183915 -0.00876659 0)
(-0.000185144 -0.0090132 0)
(-0.000186312 -0.00926141 0)
(-0.000187417 -0.00951114 0)
(-0.000188462 -0.0097623 0)
(-0.000189444 -0.0100148 0)
(-0.000190366 -0.0102686 0)
(-0.000191225 -0.0105236 0)
(-0.000192023 -0.0107796 0)
(-0.00019276 -0.0110367 0)
(-0.000193435 -0.0112948 0)
(-0.000194048 -0.0115537 0)
(-0.0001946 -0.0118133 0)
(-0.00019509 -0.0120737 0)
(-0.00019552 -0.0123347 0)
(-0.000195886 -0.0125962 0)
(-0.0001962 -0.0128582 0)
(-0.000196431 -0.0131205 0)
(-0.000196597 -0.0133831 0)
(-0.000196721 -0.0136459 0)
(-0.000196758 -0.0139089 0)
(-7.19656e-07 -7.32571e-07 0)
(-2.35974e-06 -6.78111e-06 0)
(-3.99013e-06 -2.01678e-05 0)
(-5.57498e-06 -3.98439e-05 0)
(-7.14546e-06 -6.57969e-05 0)
(-8.68641e-06 -9.79731e-05 0)
(-1.02091e-05 -0.000136264 0)
(-1.17096e-05 -0.000180605 0)
(-1.319e-05 -0.000230905 0)
(-1.46497e-05 -0.000287086 0)
(-1.60887e-05 -0.000349066 0)
(-1.75077e-05 -0.000416761 0)
(-1.89051e-05 -0.000490089 0)
(-2.02841e-05 -0.00056897 0)
(-2.1638e-05 -0.000653318 0)
(-2.29816e-05 -0.000743054 0)
(-2.42777e-05 -0.000838084 0)
(-2.56032e-05 -0.000938354 0)
(-2.67291e-05 -0.00104378 0)
(-2.79971e-05 -0.00115416 0)
(-2.92569e-05 -0.00126954 0)
(-3.04653e-05 -0.00138982 0)
(-3.16642e-05 -0.00151488 0)
(-3.28319e-05 -0.00164467 0)
(-3.39825e-05 -0.00177909 0)
(-3.51101e-05 -0.00191807 0)
(-3.62181e-05 -0.00206151 0)
(-3.7305e-05 -0.00220935 0)
(-3.83716e-05 -0.00236149 0)
(-3.94175e-05 -0.00251786 0)
(-4.0443e-05 -0.00267838 0)
(-4.14479e-05 -0.00284295 0)
(-4.24323e-05 -0.0030115 0)
(-4.33962e-05 -0.00318395 0)
(-4.43395e-05 -0.00336022 0)
(-4.52623e-05 -0.00354022 0)
(-4.61646e-05 -0.00372386 0)
(-4.70463e-05 -0.00391108 0)
(-4.79076e-05 -0.00410178 0)
(-4.87482e-05 -0.00429589 0)
(-4.95684e-05 -0.00449332 0)
(-5.0368e-05 -0.00469398 0)
(-5.11471e-05 -0.00489781 0)
(-5.19057e-05 -0.00510471 0)
(-5.26437e-05 -0.0053146 0)
(-5.33612e-05 -0.00552741 0)
(-5.40582e-05 -0.00574305 0)
(-5.47347e-05 -0.00596143 0)
(-5.53906e-05 -0.00618247 0)
(-5.6026e-05 -0.00640611 0)
(-5.66409e-05 -0.00663224 0)
(-5.72352e-05 -0.00686079 0)
(-5.78091e-05 -0.00709167 0)
(-5.83624e-05 -0.00732481 0)
(-5.88951e-05 -0.00756012 0)
(-5.94074e-05 -0.00779753 0)
(-5.98991e-05 -0.00803694 0)
(-6.03703e-05 -0.00827828 0)
(-6.0821e-05 -0.00852146 0)
(-6.12512e-05 -0.0087664 0)
(-6.16608e-05 -0.00901302 0)
(-6.205e-05 -0.00926124 0)
(-6.24186e-05 -0.00951098 0)
(-6.27667e-05 -0.00976215 0)
(-6.30942e-05 -0.0100147 0)
(-6.34013e-05 -0.0102685 0)
(-6.36878e-05 -0.0105234 0)
(-6.39538e-05 -0.0107795 0)
(-6.41993e-05 -0.0110366 0)
(-6.44242e-05 -0.0112947 0)
(-6.46286e-05 -0.0115536 0)
(-6.48127e-05 -0.0118133 0)
(-6.4976e-05 -0.0120736 0)
(-6.51195e-05 -0.0123346 0)
(-6.52415e-05 -0.0125961 0)
(-6.53452e-05 -0.0128581 0)
(-6.54264e-05 -0.0131205 0)
(-6.54759e-05 -0.0133831 0)
(-6.55155e-05 -0.0136459 0)
(-6.55263e-05 -0.0139088 0)
(7.19736e-07 -7.32581e-07 0)
(2.36e-06 -6.78113e-06 0)
(3.99059e-06 -2.01678e-05 0)
(5.57563e-06 -3.9844e-05 0)
(7.1463e-06 -6.57969e-05 0)
(8.68743e-06 -9.79731e-05 0)
(1.02103e-05 -0.000136264 0)
(1.1711e-05 -0.000180605 0)
(1.31917e-05 -0.000230905 0)
(1.46514e-05 -0.000287086 0)
(1.60909e-05 -0.000349066 0)
(1.75094e-05 -0.000416761 0)
(1.89082e-05 -0.000490089 0)
(2.02845e-05 -0.00056897 0)
(2.16444e-05 -0.000653318 0)
(2.29751e-05 -0.000743056 0)
(2.43058e-05 -0.000838092 0)
(2.55895e-05 -0.000938368 0)
(2.69236e-05 -0.00104376 0)
(2.819e-05 -0.00115416 0)
(2.94119e-05 -0.00126954 0)
(3.06267e-05 -0.00138981 0)
(3.181e-05 -0.00151488 0)
(3.29807e-05 -0.00164467 0)
(3.4128e-05 -0.00177909 0)
(3.52567e-05 -0.00191807 0)
(3.63642e-05 -0.00206151 0)
(3.74516e-05 -0.00220935 0)
(3.85182e-05 -0.00236149 0)
(3.95644e-05 -0.00251786 0)
(4.059e-05 -0.00267838 0)
(4.15951e-05 -0.00284295 0)
(4.25796e-05 -0.0030115 0)
(4.35436e-05 -0.00318395 0)
(4.44871e-05 -0.00336022 0)
(4.54101e-05 -0.00354022 0)
(4.63125e-05 -0.00372386 0)
(4.71944e-05 -0.00391108 0)
(4.80557e-05 -0.00410178 0)
(4.88965e-05 -0.00429589 0)
(4.97168e-05 -0.00449332 0)
(5.05166e-05 -0.00469398 0)
(5.12958e-05 -0.00489781 0)
(5.20545e-05 -0.00510471 0)
(5.27926e-05 -0.0053146 0)
(5.35102e-05 -0.00552741 0)
(5.42073e-05 -0.00574305 0)
(5.48839e-05 -0.00596143 0)
(5.55399e-05 -0.00618247 0)
(5.61755e-05 -0.00640611 0)
(5.67904e-05 -0.00663224 0)
(5.73849e-05 -0.00686079 0)
(5.79588e-05 -0.00709167 0)
(5.85122e-05 -0.00732481 0)
(5.90451e-05 -0.00756012 0)
(5.95574e-05 -0.00779753 0)
(6.00492e-05 -0.00803694 0)
(6.05205e-05 -0.00827828 0)
(6.09713e-05 -0.00852146 0)
(6.14015e-05 -0.0087664 0)
(6.18112e-05 -0.00901302 0)
(6.22004e-05 -0.00926124 0)
(6.25691e-05 -0.00951098 0)
(6.29172e-05 -0.00976215 0)
(6.32449e-05 -0.0100147 0)
(6.35519e-05 -0.0102685 0)
(6.38385e-05 -0.0105234 0)
(6.41046e-05 -0.0107795 0)
(6.43501e-05 -0.0110366 0)
(6.4575e-05 -0.0112947 0)
(6.47796e-05 -0.0115536 0)
(6.49634e-05 -0.0118133 0)
(6.51269e-05 -0.0120736 0)
(6.52693e-05 -0.0123346 0)
(6.53921e-05 -0.0125961 0)
(6.54929e-05 -0.0128581 0)
(6.55752e-05 -0.0131205 0)
(6.56382e-05 -0.0133831 0)
(6.56751e-05 -0.0136459 0)
(6.56877e-05 -0.0139088 0)
(2.21347e-06 -1.28837e-06 0)
(7.10679e-06 -7.49596e-06 0)
(1.20002e-05 -2.0889e-05 0)
(1.67416e-05 -4.05565e-05 0)
(2.14518e-05 -6.64984e-05 0)
(2.60731e-05 -9.86637e-05 0)
(3.06412e-05 -0.000136946 0)
(3.51429e-05 -0.000181276 0)
(3.95846e-05 -0.000231567 0)
(4.39637e-05 -0.00028774 0)
(4.82818e-05 -0.000349709 0)
(5.25376e-05 -0.000417395 0)
(5.67328e-05 -0.000490715 0)
(6.08646e-05 -0.000569586 0)
(6.49383e-05 -0.000653925 0)
(6.89445e-05 -0.000743654 0)
(7.2903e-05 -0.00083868 0)
(7.67838e-05 -0.000938948 0)
(8.06372e-05 -0.00104435 0)
(8.43984e-05 -0.00115472 0)
(8.80944e-05 -0.00127009 0)
(9.17279e-05 -0.00139035 0)
(9.5295e-05 -0.00151541 0)
(9.88041e-05 -0.00164519 0)
(0.00010225 -0.0017796 0)
(0.000105635 -0.00191857 0)
(0.000108958 -0.00206201 0)
(0.000112219 -0.00220983 0)
(0.000115419 -0.00236197 0)
(0.000118557 -0.00251833 0)
(0.000121634 -0.00267883 0)
(0.000124649 -0.0028434 0)
(0.000127603 -0.00301194 0)
(0.000130495 -0.00318438 0)
(0.000133325 -0.00336064 0)
(0.000136094 -0.00354063 0)
(0.000138801 -0.00372427 0)
(0.000141446 -0.00391147 0)
(0.00014403 -0.00410216 0)
(0.000146552 -0.00429626 0)
(0.000149013 -0.00449368 0)
(0.000151412 -0.00469434 0)
(0.00015375 -0.00489816 0)
(0.000156026 -0.00510505 0)
(0.00015824 -0.00531493 0)
(0.000160393 -0.00552773 0)
(0.000162484 -0.00574336 0)
(0.000164514 -0.00596173 0)
(0.000166482 -0.00618277 0)
(0.000168388 -0.00640639 0)
(0.000170233 -0.00663251 0)
(0.000172016 -0.00686105 0)
(0.000173738 -0.00709193 0)
(0.000175398 -0.00732506 0)
(0.000176996 -0.00756036 0)
(0.000178533 -0.00779775 0)
(0.000180009 -0.00803716 0)
(0.000181423 -0.00827848 0)
(0.000182775 -0.00852166 0)
(0.000184065 -0.00876659 0)
(0.000185295 -0.0090132 0)
(0.000186462 -0.00926141 0)
(0.000187568 -0.00951114 0)
(0.000188612 -0.0097623 0)
(0.000189595 -0.0100148 0)
(0.000190516 -0.0102686 0)
(0.000191376 -0.0105236 0)
(0.000192174 -0.0107796 0)
(0.000192911 -0.0110367 0)
(0.000193586 -0.0112948 0)
(0.000194199 -0.0115537 0)
(0.000194751 -0.0118133 0)
(0.000195241 -0.0120737 0)
(0.000195669 -0.0123347 0)
(0.000196037 -0.0125962 0)
(0.000196342 -0.0128582 0)
(0.000196586 -0.0131205 0)
(0.000196766 -0.0133831 0)
(0.000196881 -0.0136459 0)
(0.00019692 -0.0139089 0)
(3.87054e-06 -2.32201e-06 0)
(1.19269e-05 -8.79672e-06 0)
(2.00782e-05 -2.21754e-05 0)
(2.79549e-05 -4.18271e-05 0)
(3.57988e-05 -6.77486e-05 0)
(4.34993e-05 -9.98945e-05 0)
(5.11118e-05 -0.00013816 0)
(5.86145e-05 -0.000182474 0)
(6.60171e-05 -0.000232748 0)
(7.33158e-05 -0.000288904 0)
(8.05123e-05 -0.000350857 0)
(8.76056e-05 -0.000418527 0)
(9.4597e-05 -0.000491829 0)
(0.000101484 -0.000570684 0)
(0.000108271 -0.000655007 0)
(0.000114951 -0.000744721 0)
(0.000121537 -0.000839732 0)
(0.000128011 -0.000939983 0)
(0.00013439 -0.00104536 0)
(0.000140651 -0.00115572 0)
(0.000146815 -0.00127107 0)
(0.000152871 -0.00139132 0)
(0.00015882 -0.00151636 0)
(0.000164667 -0.00164612 0)
(0.000170411 -0.00178052 0)
(0.000176052 -0.00191947 0)
(0.000181591 -0.00206289 0)
(0.000187027 -0.0022107 0)
(0.00019236 -0.00236282 0)
(0.00019759 -0.00251916 0)
(0.000202718 -0.00267965 0)
(0.000207743 -0.0028442 0)
(0.000212666 -0.00301273 0)
(0.000217485 -0.00318515 0)
(0.000222202 -0.00336139 0)
(0.000226817 -0.00354136 0)
(0.000231329 -0.00372498 0)
(0.000235738 -0.00391217 0)
(0.000240044 -0.00410285 0)
(0.000244248 -0.00429693 0)
(0.000248349 -0.00449433 0)
(0.000252348 -0.00469497 0)
(0.000256244 -0.00489877 0)
(0.000260037 -0.00510565 0)
(0.000263727 -0.00531552 0)
(0.000267315 -0.0055283 0)
(0.0002708 -0.00574391 0)
(0.000274183 -0.00596226 0)
(0.000277463 -0.00618328 0)
(0.00028064 -0.00640689 0)
(0.000283715 -0.00663299 0)
(0.000286687 -0.00686152 0)
(0.000289557 -0.00709238 0)
(0.000292323 -0.00732549 0)
(0.000294988 -0.00756078 0)
(0.000297549 -0.00779816 0)
(0.000300008 -0.00803754 0)
(0.000302364 -0.00827885 0)
(0.000304618 -0.00852201 0)
(0.000306769 -0.00876693 0)
(0.000308817 -0.00901352 0)
(0.000310763 -0.00926172 0)
(0.000312606 -0.00951143 0)
(0.000314347 -0.00976257 0)
(0.000315985 -0.0100151 0)
(0.00031752 -0.0102688 0)
(0.000318953 -0.0105238 0)
(0.000320283 -0.0107798 0)
(0.000321511 -0.0110369 0)
(0.000322636 -0.0112949 0)
(0.000323658 -0.0115538 0)
(0.000324578 -0.0118135 0)
(0.000325395 -0.0120738 0)
(0.000326109 -0.0123348 0)
(0.000326721 -0.0125963 0)
(0.000327231 -0.0128582 0)
(0.000327637 -0.0131205 0)
(0.000327939 -0.0133831 0)
(0.000328137 -0.0136459 0)
(0.000328215 -0.0139089 0)
(6.11333e-06 -4.34221e-06 0)
(1.68384e-05 -1.10333e-05 0)
(2.82687e-05 -2.44043e-05 0)
(3.92331e-05 -4.40177e-05 0)
(5.02068e-05 -6.99169e-05 0)
(6.09834e-05 -0.000102031 0)
(7.16393e-05 -0.000140269 0)
(8.21431e-05 -0.000184554 0)
(9.25064e-05 -0.0002348 0)
(0.000102725 -0.000290927 0)
(0.0001128 -0.000352851 0)
(0.00012273 -0.000420492 0)
(0.000132518 -0.000493766 0)
(0.00014216 -0.000572592 0)
(0.000151662 -0.000656886 0)
(0.000161014 -0.000746571 0)
(0.00017023 -0.000841554 0)
(0.000179291 -0.000941774 0)
(0.000188204 -0.00104712 0)
(0.000196966 -0.00115745 0)
(0.000205594 -0.00127278 0)
(0.000214071 -0.00139299 0)
(0.000222401 -0.00151801 0)
(0.000230588 -0.00164774 0)
(0.000238629 -0.00178211 0)
(0.000246527 -0.00192103 0)
(0.000254281 -0.00206442 0)
(0.000261891 -0.0022122 0)
(0.000269357 -0.00236429 0)
(0.00027668 -0.00252061 0)
(0.000283859 -0.00268107 0)
(0.000290894 -0.00284559 0)
(0.000297785 -0.00301409 0)
(0.000304533 -0.00318648 0)
(0.000311137 -0.00336269 0)
(0.000317597 -0.00354263 0)
(0.000323913 -0.00372623 0)
(0.000330086 -0.00391339 0)
(0.000336115 -0.00410404 0)
(0.000342 -0.00429809 0)
(0.000347742 -0.00449546 0)
(0.00035334 -0.00469607 0)
(0.000358794 -0.00489985 0)
(0.000364104 -0.00510669 0)
(0.000369271 -0.00531653 0)
(0.000374294 -0.00552928 0)
(0.000379174 -0.00574487 0)
(0.000383909 -0.00596319 0)
(0.000388501 -0.00618419 0)
(0.000392949 -0.00640776 0)
(0.000397254 -0.00663384 0)
(0.000401415 -0.00686233 0)
(0.000405432 -0.00709316 0)
(0.000409305 -0.00732625 0)
(0.000413035 -0.00756151 0)
(0.000416621 -0.00779886 0)
(0.000420064 -0.00803821 0)
(0.000423363 -0.0082795 0)
(0.000426518 -0.00852262 0)
(0.000429529 -0.00876751 0)
(0.000432397 -0.00901408 0)
(0.000435121 -0.00926225 0)
(0.000437702 -0.00951193 0)
(0.000440138 -0.00976304 0)
(0.000442432 -0.0100155 0)
(0.000444581 -0.0102692 0)
(0.000446587 -0.0105242 0)
(0.000448449 -0.0107802 0)
(0.000450168 -0.0110372 0)
(0.000451742 -0.0112952 0)
(0.000453174 -0.0115541 0)
(0.000454461 -0.0118137 0)
(0.000455605 -0.012074 0)
(0.000456605 -0.012335 0)
(0.000457463 -0.0125964 0)
(0.000458176 -0.0128584 0)
(0.000458747 -0.0131206 0)
(0.000459174 -0.0133832 0)
(0.000459466 -0.013646 0)
(0.000459627 -0.0139089 0)
)
;

boundaryField
{
    top
    {
        type            solidTraction;
        traction        uniform (0 0 0);
        pressure        uniform 0;
        secondOrder     false;
        setEffectiveTraction false;
        relaxationFactor 1;
        value           nonuniform List<vector> 
80
(
(8.03527e-06 -5.57177e-06 3.41058e-20)
(1.93462e-05 -1.22202e-05 6.01812e-21)
(3.23918e-05 -2.5604e-05 -1.7188e-20)
(4.49222e-05 -4.51929e-05 -8.07786e-20)
(5.74585e-05 -7.10821e-05 -2.22147e-20)
(6.97774e-05 -0.000103179 1.27003e-19)
(8.19546e-05 -0.000141403 2.63748e-20)
(9.39594e-05 -0.000185671 -9.53675e-20)
(0.000105803 -0.000235902 6.85005e-20)
(0.000117481 -0.000292014 2.20042e-19)
(0.000128995 -0.000353923 7.11365e-20)
(0.000140345 -0.000421548 -1.49028e-19)
(0.00015153 -0.000494807 -1.06739e-19)
(0.00016255 -0.000573618 -1.16923e-19)
(0.000173409 -0.000657896 -9.75134e-34)
(0.000184098 -0.000747566 2.34962e-19)
(0.00019463 -0.000842533 -8.77538e-20)
(0.000204987 -0.000942737 -1.30618e-19)
(0.000215164 -0.00104806 -1.21788e-20)
(0.000225173 -0.00115839 -3.29144e-19)
(0.000235037 -0.00127369 -1.22895e-19)
(0.000244724 -0.00139389 3.32604e-19)
(0.000254244 -0.00151889 -1.60374e-19)
(0.0002636 -0.00164861 -2.19907e-19)
(0.00027279 -0.00178296 -7.31962e-21)
(0.000281816 -0.00192187 1.63904e-19)
(0.000290677 -0.00206524 3.89976e-19)
(0.000299375 -0.00221301 -3.50234e-19)
(0.000307908 -0.00236508 -2.50008e-19)
(0.000316276 -0.00252138 3.4503e-19)
(0.000324481 -0.00268183 -1.86927e-19)
(0.000332521 -0.00284633 8.92334e-20)
(0.000340397 -0.00301482 3.75337e-19)
(0.000348108 -0.0031872 -2.96404e-19)
(0.000355656 -0.00336339 -2.06704e-19)
(0.000363039 -0.00354332 2.01803e-19)
(0.000370258 -0.0037269 5.00187e-19)
(0.000377312 -0.00391404 -2.29338e-19)
(0.000384202 -0.00410467 -5.39349e-19)
(0.000390929 -0.00429871 3.20588e-19)
(0.00039749 -0.00449607 2.07909e-19)
(0.000403888 -0.00469667 -5.07537e-21)
(0.000410121 -0.00490042 -2.40297e-19)
(0.00041619 -0.00510725 2.31308e-19)
(0.000422095 -0.00531708 2.27566e-19)
(0.000427836 -0.00552981 -3.61205e-19)
(0.000433412 -0.00574538 3.5247e-19)
(0.000438824 -0.00596369 -2.50297e-19)
(0.000444072 -0.00618467 -4.15146e-21)
(0.000449156 -0.00640823 3.60342e-19)
(0.000454075 -0.00663429 -3.88225e-19)
(0.000458831 -0.00686277 -3.75556e-21)
(0.000463422 -0.00709359 -2.59338e-19)
(0.000467849 -0.00732666 2.56492e-19)
(0.000472111 -0.0075619 3.91844e-19)
(0.00047621 -0.00779923 -4.01778e-19)
(0.000480144 -0.00803858 -1.365e-19)
(0.000483914 -0.00827984 -2.96379e-21)
(0.00048752 -0.00852295 4.06354e-19)
(0.000490961 -0.00876783 3.9977e-19)
(0.000494239 -0.00901438 -4.24789e-19)
(0.000497352 -0.00926253 -4.16977e-19)
(0.000500301 -0.0095122 -2.82606e-19)
(0.000503086 -0.0097633 4.17144e-19)
(0.000505707 -0.0100157 4.18438e-19)
(0.000508163 -0.0102695 -4.26406e-19)
(0.000510456 -0.0105244 -1.77627e-21)
(0.000512584 -0.0107804 -2.85638e-19)
(0.000514548 -0.0110374 2.67052e-32)
(0.000516348 -0.0112954 7.15193e-19)
(0.000517983 -0.0115542 -4.36979e-21)
(0.000519455 -0.0118139 -4.3462e-19)
(0.000520762 -0.0120742 -1.44678e-19)
(0.000521906 -0.0123351 1.43289e-19)
(0.000522885 -0.0125965 5.80707e-19)
(0.000523701 -0.0128584 -1.47263e-19)
(0.000524352 -0.0131207 -5.83839e-19)
(0.00052484 -0.0133832 1.4548e-19)
(0.00052518 -0.013646 1.45607e-19)
(0.000525408 -0.0139089 -8.76442e-19)
)
;
        gradient        nonuniform List<vector> 
80
(
(0.00030751 -0.000196729 5.45693e-18)
(0.000401241 -0.000189903 9.62899e-19)
(0.000659687 -0.000191955 -2.75008e-18)
(0.000910252 -0.000188041 -1.29246e-17)
(0.00116027 -0.000186431 -3.55436e-18)
(0.00140704 -0.000183707 2.03204e-17)
(0.00165045 -0.000181369 4.21996e-18)
(0.00189061 -0.000178861 -1.52588e-17)
(0.00212746 -0.000176413 1.09601e-17)
(0.00236103 -0.000173942 3.52067e-17)
(0.00259131 -0.000171477 1.13818e-17)
(0.00281829 -0.000169014 -2.38445e-17)
(0.003042 -0.000166543 -1.70783e-17)
(0.0032624 -0.000164089 -1.87077e-17)
(0.00347957 -0.000161608 -1.56021e-31)
(0.00369336 -0.000159157 3.75939e-17)
(0.00390406 -0.000156661 -1.40406e-17)
(0.00411128 -0.000154063 -2.08989e-17)
(0.00431361 -0.000151494 -1.94861e-18)
(0.00451319 -0.000149059 -5.2663e-17)
(0.00471077 -0.000146616 -1.96633e-17)
(0.00490455 -0.000144059 5.32166e-17)
(0.0050949 -0.000141573 -2.56598e-17)
(0.005282 -0.000139095 -3.51852e-17)
(0.00546577 -0.000136621 -1.17114e-18)
(0.00564628 -0.000134158 2.62246e-17)
(0.00582351 -0.00013169 6.23961e-17)
(0.00599745 -0.000129227 -5.60375e-17)
(0.00616811 -0.000126762 -4.00012e-17)
(0.00633548 -0.000124299 5.52048e-17)
(0.00649956 -0.000121834 -2.99083e-17)
(0.00666037 -0.00011937 1.42774e-17)
(0.00681788 -0.000116906 6.00539e-17)
(0.00697211 -0.000114442 -4.74246e-17)
(0.00712305 -0.000111978 -3.30726e-17)
(0.00727071 -0.000109514 3.22885e-17)
(0.00741509 -0.00010705 8.00299e-17)
(0.00755618 -0.000104587 -3.6694e-17)
(0.00769398 -0.000102123 -8.62958e-17)
(0.0078285 -9.96591e-05 5.1294e-17)
(0.00795974 -9.71954e-05 3.32654e-17)
(0.00808769 -9.47318e-05 -8.12058e-19)
(0.00821235 -9.22682e-05 -3.84475e-17)
(0.00833373 -8.98045e-05 3.70092e-17)
(0.00845183 -8.73409e-05 3.64106e-17)
(0.00856664 -8.48774e-05 -5.77929e-17)
(0.00867816 -8.24139e-05 5.63953e-17)
(0.00878641 -7.99505e-05 -4.00475e-17)
(0.00889136 -7.74871e-05 -6.64234e-19)
(0.00899303 -7.50239e-05 5.76547e-17)
(0.00909142 -7.25607e-05 -6.21161e-17)
(0.00918653 -7.00976e-05 -6.00889e-19)
(0.00927835 -6.76345e-05 -4.1494e-17)
(0.00936688 -6.51713e-05 4.10387e-17)
(0.00945214 -6.27082e-05 6.26951e-17)
(0.0095341 -6.02451e-05 -6.42845e-17)
(0.00961279 -5.77822e-05 -2.184e-17)
(0.00968819 -5.53193e-05 -4.74207e-19)
(0.0097603 -5.28564e-05 6.50167e-17)
(0.00982914 -5.03935e-05 6.39633e-17)
(0.00989468 -4.79307e-05 -6.79662e-17)
(0.00995695 -4.54678e-05 -6.67164e-17)
(0.0100159 -4.30051e-05 -4.5217e-17)
(0.0100716 -4.05424e-05 6.6743e-17)
(0.010124 -3.80796e-05 6.695e-17)
(0.0101732 -3.56169e-05 -6.82249e-17)
(0.010219 -3.31542e-05 -2.84203e-19)
(0.0102616 -3.06916e-05 -4.57021e-17)
(0.0103009 -2.82288e-05 4.27284e-30)
(0.0103369 -2.57664e-05 1.14431e-16)
(0.0103696 -2.33036e-05 -6.99167e-19)
(0.010399 -2.08419e-05 -6.95392e-17)
(0.0104251 -1.83798e-05 -2.31485e-17)
(0.010448 -1.59199e-05 2.29263e-17)
(0.0104676 -1.34628e-05 9.29132e-17)
(0.0104839 -1.1008e-05 -2.3562e-17)
(0.0104969 -8.55624e-06 -9.34142e-17)
(0.0105066 -6.16294e-06 2.32768e-17)
(0.0105143 -3.8817e-06 2.3297e-17)
(0.0105249 -1.59571e-06 -1.40231e-16)
)
;
    }
    left
    {
        type            fixedDisplacement;
        value           uniform (0 0 0);
    }
    right
    {
        type            solidTraction;
        traction        uniform (0 -1e+06 0);
        pressure        uniform 0;
        secondOrder     false;
        setEffectiveTraction false;
        relaxationFactor 1;
        value           nonuniform List<vector> 8((-0.000459479 -0.0140406 1.16763e-18) (-0.000328067 -0.0140404 2.3193e-22) (-0.000196767 -0.0140403 -2.33171e-18) (-6.55299e-05 -0.0140402 1.16553e-18) (6.56913e-05 -0.0140402 -2.1982e-23) (0.000196929 -0.0140403 1.16585e-18) (0.000328228 -0.0140404 -1.7501e-18) (0.00045964 -0.0140406 5.84539e-19));
        gradient        nonuniform List<vector> 8((-9.86739e-07 -0.010532 9.34107e-17) (-1.07863e-06 -0.0105213 1.85544e-20) (-7.17917e-07 -0.0105141 -1.86537e-16) (-2.83976e-07 -0.0105108 9.32425e-17) (2.89655e-07 -0.0105108 -1.75856e-21) (7.18236e-07 -0.0105141 9.32683e-17) (1.07857e-06 -0.0105213 -1.40008e-16) (9.89831e-07 -0.010532 4.67631e-17));
    }
    bottom
    {
        type            solidTraction;
        traction        uniform (0 0 0);
        pressure        uniform 0;
        secondOrder     false;
        setEffectiveTraction false;
        relaxationFactor 1;
        value           nonuniform List<vector> 
80
(
(-8.03514e-06 -5.57166e-06 -2.82182e-21)
(-1.93459e-05 -1.22201e-05 -1.0237e-20)
(-3.23913e-05 -2.56038e-05 -2.63432e-20)
(-4.49216e-05 -4.51928e-05 7.57365e-20)
(-5.74576e-05 -7.10819e-05 1.22259e-20)
(-6.97764e-05 -0.000103179 -8.79492e-20)
(-8.19534e-05 -0.000141402 9.71703e-21)
(-9.3958e-05 -0.000185671 -9.58252e-21)
(-0.000105801 -0.000235902 9.45142e-21)
(-0.000117479 -0.000292014 -9.31888e-21)
(-0.000128993 -0.000353923 -1.70621e-19)
(-0.000140343 -0.000421548 1.35819e-20)
(-0.000151527 -0.000494807 2.20004e-19)
(-0.00016255 -0.000573617 8.17614e-20)
(-0.000173402 -0.000657899 -9.22474e-20)
(-0.000184099 -0.000747563 1.02514e-19)
(-0.000194607 -0.00084254 1.99937e-19)
(-0.000204951 -0.000942708 -2.3636e-19)
(-0.000215134 -0.00104796 -8.10846e-21)
(-0.000225078 -0.00115835 1.21364e-19)
(-0.000234929 -0.00127371 -3.92308e-19)
(-0.000244578 -0.0013939 -4.61023e-19)
(-0.000254104 -0.0015189 1.67951e-19)
(-0.000263452 -0.00164861 3.77681e-19)
(-0.000272645 -0.00178296 1.51705e-19)
(-0.000281669 -0.00192187 -1.56715e-19)
(-0.000290531 -0.00206524 -5.48083e-19)
(-0.000299228 -0.00221301 1.90694e-19)
(-0.000307761 -0.00236508 2.6359e-19)
(-0.00031613 -0.00252138 1.33186e-20)
(-0.000324334 -0.00268183 1.9019e-19)
(-0.000332374 -0.00284633 -1.78467e-19)
(-0.00034025 -0.00301482 6.26323e-21)
(-0.000347961 -0.0031872 9.19683e-21)
(-0.000355508 -0.00336339 2.09703e-19)
(-0.000362891 -0.00354332 4.12407e-19)
(-0.00037011 -0.0037269 -5.14525e-19)
(-0.000377164 -0.00391404 -2.06924e-19)
(-0.000384054 -0.00410467 1.14982e-19)
(-0.00039078 -0.00429871 -5.37872e-19)
(-0.000397342 -0.00449607 -9.22382e-20)
(-0.000403739 -0.00469667 7.61287e-21)
(-0.000409973 -0.00490042 3.59209e-19)
(-0.000416042 -0.00510725 3.51773e-19)
(-0.000421946 -0.00531708 -5.86463e-19)
(-0.000427687 -0.00552981 1.81892e-20)
(-0.000433263 -0.00574538 1.10383e-20)
(-0.000438675 -0.00596369 2.58863e-19)
(-0.000443923 -0.00618467 3.70177e-19)
(-0.000449006 -0.00640823 -6.24017e-19)
(-0.000453926 -0.00663429 1.3606e-20)
(-0.000458681 -0.00686277 3.75547e-21)
(-0.000463272 -0.00709359 2.70208e-19)
(-0.000467699 -0.00732666 3.95212e-19)
(-0.000471961 -0.0075619 -6.55874e-19)
(-0.00047606 -0.00779923 2.75921e-19)
(-0.000479994 -0.00803858 -1.78219e-32)
(-0.000483764 -0.00827984 1.0373e-20)
(-0.000487369 -0.00852295 -3.01259e-32)
(-0.000490811 -0.00876783 4.04974e-21)
(-0.000494088 -0.00901438 4.11949e-19)
(-0.000497202 -0.00926253 -2.76361e-19)
(-0.000500151 -0.0095122 5.55996e-19)
(-0.000502936 -0.0097633 -2.17205e-21)
(-0.000505556 -0.0100157 -5.61997e-19)
(-0.000508013 -0.0102695 2.8427e-19)
(-0.000510305 -0.0105244 -4.23676e-19)
(-0.000512433 -0.0107804 2.91393e-19)
(-0.000514397 -0.0110374 4.2886e-19)
(-0.000516197 -0.0112954 -5.73811e-19)
(-0.000517833 -0.0115542 1.24852e-21)
(-0.000519304 -0.0118139 -1.42082e-19)
(-0.000520611 -0.0120742 5.80189e-19)
(-0.000521755 -0.0123351 -8.52028e-22)
(-0.000522731 -0.0125965 -1.0165e-18)
(-0.000523547 -0.0128584 7.29509e-19)
(-0.000524194 -0.0131207 -4.56105e-22)
(-0.000524682 -0.0133832 -2.908e-19)
(-0.00052502 -0.013646 4.37747e-19)
(-0.000525247 -0.0139089 2.91998e-19)
)
;
        gradient        nonuniform List<vector> 
80
(