/*--------------------------------*- C++ -*----------------------------------*\
| =========                 |                                                 |
| \\      /  F ield         | foam-extend: Open Source CFD                    |
|  \\    /   O peration     | Version:     4.0                                |
|   \\  /    A nd           | Web:         http://www.foam-extend.org         |
|    \\/     M anipulation  |                                                 |
\*---------------------------------------------------------------------------*/
FoamFile
{
    version     2.0;
    format      ascii;
    class       volScalarField;
    location    "1";
    object      epsilonEq;
}
// * * * * * * * * * * * * * * * * * * * * * * * * * * * * * * * * * * * * * //

dimensions      [0 0 0 0 0 0 0];

internalField   nonuniform List<scalar> 
640
(
0.000381883
0.000372423
0.000375824
0.000368302
0.000365081
0.000359746
0.000355164
0.000350252
0.00034546
0.000340616
0.000335799
0.000330957
0.000326149
0.00032127
0.00031648
0.000311475
0.000306357
0.000301639
0.000295484
0.000290394
0.000286448
0.000281638
0.000277198
0.000272298
0.000267553
0.000262703
0.000257892
0.00025306
0.000248237
0.000243411
0.000238586
0.000233761
0.000228936
0.000224111
0.000219286
0.000214462
0.000209638
0.000204813
0.000199989
0.000195165
0.000190341
0.000185517
0.000180694
0.00017587
0.000171046
0.000166222
0.000161399
0.000156576
0.000151753
0.00014693
0.000142107
0.000137285
0.000132462
0.00012764
0.000122817
0.000117995
0.000113173
0.000108352
0.00010353
9.87088e-05
9.38876e-05
8.90666e-05
8.4246e-05
7.94255e-05
7.46055e-05
6.97857e-05
6.49665e-05
6.01476e-05
5.53298e-05
5.05116e-05
4.56972e-05
4.08772e-05
3.60696e-05
3.1236e-05
2.64283e-05
2.1588e-05
1.68068e-05
1.22403e-05
7.90009e-06
4.91215e-06
0.00026385
0.00027568
0.000272984
0.000268038
0.00026495
0.000261012
0.000257633
0.000254058
0.000250582
0.000247069
0.000243578
0.000240068
0.000236589
0.000233058
0.000229646
0.000226095
0.000222848
0.000219536
0.00021245
0.000209435
0.000208311
0.000204317
0.000201171
0.000197558
0.000194121
0.000190598
0.000187113
0.000183611
0.000180117
0.000176619
0.000173123
0.000169627
0.000166131
0.000162635
0.00015914
0.000155645
0.00015215
0.000148655
0.00014516
0.000141666
0.000138172
0.000134678
0.000131185
0.000127692
0.000124199
0.000120706
0.000117214
0.000113722
0.000110231
0.00010674
0.00010325
9.97606e-05
9.62715e-05
9.27832e-05
8.92956e-05
8.58088e-05
8.23231e-05
7.88385e-05
7.53549e-05
7.18728e-05
6.83923e-05
6.49134e-05
6.14368e-05
5.79626e-05
5.44914e-05
5.10235e-05
4.75601e-05
4.41018e-05
4.06506e-05
3.72066e-05
3.37763e-05
3.03554e-05
2.69666e-05
2.35834e-05
2.02812e-05
1.69319e-05
1.36469e-05
1.06614e-05
8.2335e-06
7.10606e-06
0.000152731
0.000164187
0.000162323
0.000159491
0.000157315
0.000154932
0.000152898
0.000150775
0.000148717
0.000146638
0.000144575
0.000142496
0.000140456
0.000138357
0.000136504
0.000134228
0.000133979
0.000129081
0.000145819
0.000124788
0.00012556
0.000121597
0.000119709
0.000117396
0.000115354
0.000113252
0.000111194
0.000109122
0.000107059
0.000104992
0.000102928
0.000100864
9.87999e-05
9.67364e-05
9.46734e-05
9.26109e-05
9.0549e-05
8.84876e-05
8.64268e-05
8.43666e-05
8.23071e-05
8.02482e-05
7.81901e-05
7.61329e-05
7.40765e-05
7.20211e-05
6.99667e-05
6.79135e-05
6.58615e-05
6.3811e-05
6.1762e-05
5.97146e-05
5.7669e-05
5.56254e-05
5.3584e-05
5.1545e-05
4.9509e-05
4.74761e-05
4.54467e-05
4.34214e-05
4.14008e-05
3.93854e-05
3.73764e-05
3.53747e-05
3.33814e-05
3.13983e-05
2.94277e-05
2.74718e-05
2.55347e-05
2.36193e-05
2.17362e-05
1.98858e-05
1.81032e-05
1.63561e-05
1.48256e-05
1.31278e-05
1.23341e-05
1.0649e-05
1.00892e-05
8.78211e-06
5.36266e-05
5.5943e-05
5.64629e-05
5.53389e-05
5.4437e-05
5.36631e-05
5.294e-05
5.22411e-05
5.15493e-05
5.08579e-05
5.01734e-05
4.94777e-05
4.88102e-05
4.8081e-05
4.74902e-05
4.64518e-05
4.61944e-05
4.27928e-05
4.19753e-05
4.51907e-05
4.37578e-05
4.28113e-05
4.20074e-05
4.12085e-05
4.0522e-05
3.98197e-05
3.91451e-05
3.84643e-05
3.77902e-05
3.71149e-05
3.6442e-05
3.57697e-05
3.50989e-05
3.44294e-05
3.37613e-05
3.30947e-05
3.24298e-05
3.17666e-05
3.11051e-05
3.04456e-05
2.97882e-05
2.91329e-05
2.848e-05
2.78296e-05
2.71818e-05
2.65369e-05
2.5895e-05
2.52564e-05
2.46215e-05
2.39904e-05
2.33636e-05
2.27412e-05
2.21238e-05
2.15117e-05
2.09053e-05
2.03051e-05
1.97119e-05
1.91263e-05
1.85489e-05
1.79804e-05
1.74219e-05
1.68741e-05
1.63385e-05
1.58161e-05
1.5308e-05
1.4816e-05
1.43418e-05
1.38869e-05
1.34538e-05
1.30435e-05
1.26612e-05
1.23032e-05
1.19857e-05
1.16726e-05
1.14512e-05
1.10916e-05
1.11217e-05
1.12693e-05
1.12954e-05
9.56122e-06
5.36316e-05
5.59492e-05
5.64692e-05
5.53453e-05
5.44433e-05
5.36695e-05
5.29459e-05
5.22479e-05
5.15543e-05
5.08664e-05
5.01739e-05
4.94918e-05
4.87883e-05
4.81283e-05
4.73893e-05
4.68672e-05
4.62825e-05
4.61518e-05
4.58911e-05
4.41301e-05
4.32893e-05
4.25278e-05
4.17727e-05
4.11754e-05
4.04825e-05
3.98264e-05
3.91439e-05
3.84716e-05
3.77943e-05
3.71207e-05
3.64468e-05
3.57748e-05
3.51037e-05
3.44341e-05
3.37659e-05
3.30993e-05
3.24343e-05
3.1771e-05
3.11094e-05
3.04498e-05
2.97922e-05
2.91369e-05
2.8484e-05
2.78334e-05
2.71855e-05
2.65405e-05
2.58985e-05
2.52599e-05
2.46248e-05
2.39935e-05
2.33665e-05
2.27441e-05
2.21266e-05
2.15144e-05
2.09078e-05
2.03076e-05
1.97142e-05
1.91284e-05
1.85509e-05
1.79824e-05
1.74237e-05
1.68758e-05
1.634e-05
1.58174e-05
1.53093e-05
1.48172e-05
1.43427e-05
1.38878e-05
1.34542e-05
1.30442e-05
1.26597e-05
1.23021e-05
1.19761e-05
1.16749e-05
1.14249e-05
1.12057e-05
1.10461e-05
1.11446e-05
1.12658e-05
9.55121e-06
0.000152737
0.000164193
0.000162329
0.000159497
0.000157322
0.000154939
0.000152904
0.000150782
0.000148722
0.000146646
0.000144575
0.00014251
0.000140429
0.000138386
0.000136287
0.00013434
0.0001323
0.000130462
0.000128486
0.000125927
0.000123708
0.000121521
0.000119432
0.000117391
0.000115317
0.000113263
0.000111193
0.00010913
0.000107063
0.000104998
0.000102933
0.000100869
9.88049e-05
9.67413e-05
9.46783e-05
9.26158e-05
9.05538e-05
8.84923e-05
8.64313e-05
8.4371e-05
8.23114e-05
8.02526e-05
7.81944e-05
7.6137e-05
7.40805e-05
7.2025e-05
6.99705e-05
6.79172e-05
6.58651e-05
6.38144e-05
6.17652e-05
5.97178e-05
5.76721e-05
5.56284e-05
5.35869e-05
5.15479e-05
4.95117e-05
4.74785e-05
4.54491e-05
4.34238e-05
4.14029e-05
3.93875e-05
3.73783e-05
3.53764e-05
3.33831e-05
3.13999e-05
2.9429e-05
2.74732e-05
2.55353e-05
2.36206e-05
2.17338e-05
1.98839e-05
1.80811e-05
1.63379e-05
1.46924e-05
1.31645e-05
1.17833e-05
1.06645e-05
1.00167e-05
8.79318e-06
0.000263855
0.000275687
0.00027299
0.000268044
0.000264956
0.000261019
0.000257639
0.000254064
0.000250587
0.000247078
0.000243579
0.000240084
0.000236574
0.000233097
0.000229578
0.00022614
0.000222685
0.000219123
0.000215363
0.000211819
0.000208343
0.000204653
0.000201126
0.000197617
0.000194107
0.000190615
0.000187113
0.000183619
0.000180121
0.000176625
0.000173128
0.000169632
0.000166136
0.00016264
0.000159145
0.00015565
0.000152155
0.00014866
0.000145165
0.000141671
0.000138177
0.000134683
0.000131189
0.000127696
0.000124203
0.00012071
0.000117218
0.000113726
0.000110235
0.000106744
0.000103253
9.97638e-05
9.62747e-05
9.27863e-05
8.92985e-05
8.58117e-05
8.23258e-05
7.8841e-05
7.53574e-05
7.18752e-05
6.83945e-05
6.49155e-05
6.14388e-05
5.79645e-05
5.44931e-05
5.10252e-05
4.75615e-05
4.41034e-05
4.06514e-05
3.72084e-05
3.37756e-05
3.03585e-05
2.69606e-05
2.35918e-05
2.02692e-05
1.70016e-05
1.37844e-05
1.07364e-05
8.21658e-06
7.13337e-06
0.000381889
0.000372429
0.00037583
0.000368308
0.000365088
0.000359753
0.00035517
0.000350259
0.000345465
0.000340625
0.000335799
0.000330976
0.000326137
0.000321331
0.000316473
0.000311669
0.000306789
0.000301698
0.000296693
0.000291928
0.000287115
0.000282109
0.000277242
0.000272388
0.000267545
0.000262722
0.000257891
0.000253068
0.000248241
0.000243416
0.000238591
0.000233766
0.000228941
0.000224116
0.000219291
0.000214467
0.000209642
0.000204818
0.000199994
0.00019517
0.000190346
0.000185522
0.000180698
0.000175874
0.00017105
0.000166226
0.000161403
0.000156579
0.000151756
0.000146933
0.000142111
0.000137288
0.000132465
0.000127643
0.00012282
0.000117998
0.000113176
0.000108354
0.000103533
9.87112e-05
9.38898e-05
8.90687e-05
8.4248e-05
7.94275e-05
7.46072e-05
6.97873e-05
6.49678e-05
6.01492e-05
5.53307e-05
5.05136e-05
4.56969e-05
4.08837e-05
3.60717e-05
3.12666e-05
2.64711e-05
2.16876e-05
1.69135e-05
1.22546e-05
7.92398e-06
4.93233e-06
)
;

boundaryField
{
    top
    {
        type            calculated;
        value           nonuniform List<scalar> 
80
(
0.00038857
0.000375089
0.000379141
0.000371409
0.000368229
0.00036285
0.000358231
0.000353278
0.000348443
0.000343562
0.000338693
0.000333829
0.000328948
0.000324101
0.0003192
0.000314359
0.000309429
0.000304299
0.000299223
0.000294414
0.00028959
0.000284539
0.000279628
0.000274733
0.000269847
0.000264982
0.000260109
0.000255244
0.000250375
0.000245509
0.000240641
0.000235774
0.000230907
0.000226041
0.000221174
0.000216307
0.000211441
0.000206575
0.000201708
0.000196842
0.000191976
0.00018711
0.000182244
0.000177378
0.000172512
0.000167646
0.00016278
0.000157915
0.000153049
0.000148184
0.000143319
0.000138454
0.000133589
0.000128723
0.000123858
0.000118993
0.000114129
0.000109264
0.0001044
9.9535e-05
9.46705e-05
8.9806e-05
8.49418e-05
8.00774e-05
7.52131e-05
7.03489e-05
6.54846e-05
6.06207e-05
5.57563e-05
5.08926e-05
4.60282e-05
4.11659e-05
3.63029e-05
3.14443e-05
2.65911e-05
2.17424e-05
1.68999e-05
1.21728e-05
7.66696e-06
3.15178e-06
)
;
    }
    left
    {
        type            calculated;
        value           nonuniform List<scalar> 8(0.000403871 0.000257581 0.000144605 5.84032e-05 5.8407e-05 0.00014461 0.000257586 0.000403878);
    }
    right
    {
        type            calculated;
        value           nonuniform List<scalar> 8(7.74838e-06 7.79602e-06 7.63215e-06 7.52021e-06 7.52105e-06 7.63227e-06 7.796e-06 7.74991e-06);
    }
    bottom
    {
        type            calculated;
        value           nonuniform List<scalar> 
80
(
0.000388564
0.000375083
0.000379135
0.000371403
0.000368223
0.000362843
0.000358225
0.000353271
0.000348438
0.000343553
0.000338693
0.00033381
0.00032896
0.000324037
0.000319214
0.000314147
0.000309057
0.000304132
0.000297732
0.000293023
0.000288995
0.000284066
0.000279593
0.000274641
0.000269857
0.000264963
0.00026011
0.000255236
0.000250372
0.000245503
0.000240637
0.000235769
0.000230902
0.000226035
0.000221169
0.000216303
0.000211436
0.00020657
0.000201704
0.000196838
0.000191972
0.000187106
0.00018224
0.000177374
0.000172508
0.000167642
0.000162776
0.000157911
0.000153045
0.00014818
0.000143315
0.00013845
0.000133585
0.00012872
0.000123855
0.000118991
0.000114126
0.000109262
0.000104397
9.95327e-05
9.46682e-05
8.98039e-05
8.49398e-05
8.00755e-05
7.52114e-05
7.03472e-05
6.54833e-05
6.06191e-05
5.57555e-05
5.08906e-05
4.60285e-05
4.11591e-05
3.63011e-05
3.14125e-05
2.65533e-05
2.16491e-05
1.67876e-05
1.21532e-05
7.64766e-06
3.13349e-06
)
;
    }
    front
    {
        type            empty;
    }
    back
    {
        type            empty;
    }
}


// ************************************************************************* //
