/*--------------------------------*- C++ -*----------------------------------*\
| =========                 |                                                 |
| \\      /  F ield         | foam-extend: Open Source CFD                    |
|  \\    /   O peration     | Version:     4.0                                |
|   \\  /    A nd           | Web:         http://www.foam-extend.org         |
|    \\/     M anipulation  |                                                 |
\*---------------------------------------------------------------------------*/
FoamFile
{
    version     2.0;
    format      ascii;
    class       pointVectorField;
    location    "1";
    object      pointD;
}
// * * * * * * * * * * * * * * * * * * * * * * * * * * * * * * * * * * * * * //

dimensions      [0 1 0 0 0 0 0];

internalField   nonuniform List<vector> 
1458
(
(-1.92191e-06 -1.22954e-06 -2.82182e-21)
(-1.36905e-05 -8.89586e-06 -6.52939e-21)
(-2.58686e-05 -1.8912e-05 -1.82901e-20)
(-3.86564e-05 -3.53983e-05 2.46967e-20)
(-5.11896e-05 -5.81374e-05 4.39812e-20)
(-6.3617e-05 -8.71305e-05 -3.78616e-20)
(-7.58649e-05 -0.000122291 -3.91161e-20)
(-8.79557e-05 -0.000163537 6.72578e-23)
(-9.98797e-05 -0.000210787 -6.55486e-23)
(-0.00011164 -0.000263958 6.62717e-23)
(-0.000123236 -0.000322968 -8.99699e-20)
(-0.000134668 -0.000387736 -7.85195e-20)
(-0.000145935 -0.000458178 1.16793e-19)
(-0.000157038 -0.000534212 1.50883e-19)
(-0.000167976 -0.000615758 -5.243e-21)
(-0.00017875 -0.000702731 5.13349e-21)
(-0.000189353 -0.000795052 1.51226e-19)
(-0.000199779 -0.000892624 -1.82112e-20)
(-0.000210043 -0.000995332 -1.22234e-19)
(-0.000220106 -0.00110315 5.66278e-20)
(-0.000230003 -0.00121603 -1.35472e-19)
(-0.000239754 -0.0013338 -4.26665e-19)
(-0.000249341 -0.0014564 -1.46536e-19)
(-0.000258778 -0.00158375 2.72816e-19)
(-0.000268049 -0.00171578 2.64693e-19)
(-0.000277157 -0.00185241 -2.50521e-21)
(-0.0002861 -0.00199355 -3.52399e-19)
(-0.00029488 -0.00213913 -1.78694e-19)
(-0.000303495 -0.00228905 2.27142e-19)
(-0.000311945 -0.00244323 1.38454e-19)
(-0.000320232 -0.00260161 1.01754e-19)
(-0.000328354 -0.00276408 5.86151e-21)
(-0.000336312 -0.00293057 -8.61019e-20)
(-0.000344105 -0.00310101 7.73003e-21)
(-0.000351735 -0.00327529 1.0945e-19)
(-0.0003592 -0.00345335 3.11055e-19)
(-0.0003665 -0.00363511 -5.10593e-20)
(-0.000373637 -0.00382047 -3.60725e-19)
(-0.000380609 -0.00400936 -4.59711e-20)
(-0.000387417 -0.00420169 -2.11445e-19)
(-0.000394061 -0.00439739 -3.15055e-19)
(-0.000400541 -0.00459637 -4.23127e-20)
(-0.000406856 -0.00479854 1.83411e-19)
(-0.000413007 -0.00500384 3.55491e-19)
(-0.000418994 -0.00521217 -1.17345e-19)
(-0.000424816 -0.00542345 -2.84137e-19)
(-0.000430475 -0.0056376 1.46137e-20)
(-0.000435969 -0.00585454 1.34951e-19)
(-0.000441299 -0.00607418 3.1452e-19)
(-0.000446465 -0.00629645 -1.2692e-19)
(-0.000451466 -0.00652126 -3.05206e-19)
(-0.000456303 -0.00674853 8.68074e-21)
(-0.000460976 -0.00697818 1.36982e-19)
(-0.000465485 -0.00721012 3.3271e-19)
(-0.00046983 -0.00744428 -1.30331e-19)
(-0.00047401 -0.00768057 -1.89976e-19)
(-0.000478027 -0.0079189 1.37961e-19)
(-0.000481879 -0.00815921 5.18651e-21)
(-0.000485567 -0.0084014 5.18651e-21)
(-0.00048909 -0.00864539 2.02487e-21)
(-0.00049245 -0.0088911 2.07999e-19)
(-0.000495645 -0.00913846 6.77941e-20)
(-0.000498676 -0.00938736 1.39817e-19)
(-0.000501543 -0.00963775 2.76912e-19)
(-0.000504246 -0.00988952 -2.82085e-19)
(-0.000506784 -0.0101426 -1.38863e-19)
(-0.000509159 -0.0103969 -6.97027e-20)
(-0.000511369 -0.0106524 -6.61413e-20)
(-0.000513415 -0.0109089 3.60126e-19)
(-0.000515297 -0.0111664 -7.24757e-20)
(-0.000517015 -0.0114248 -2.86281e-19)
(-0.000518568 -0.011684 -7.04169e-20)
(-0.000519958 -0.011944 2.19053e-19)
(-0.000521183 -0.0122046 2.89668e-19)
(-0.000522243 -0.0124658 -5.08678e-19)
(-0.000523139 -0.0127275 -1.43498e-19)
(-0.00052387 -0.0129896 3.64526e-19)
(-0.000524438 -0.013252 -1.45628e-19)
(-0.000524851 -0.0135146 7.34735e-20)
(-0.000525134 -0.0137775 3.64872e-19)
(-0.000525259 -0.0140406 1.45963e-18)
(-5.7914e-22 -5.63694e-22 0)
(-9.6871e-06 -6.62347e-06 0)
(-1.92777e-05 -1.66023e-05 0)
(-2.88832e-05 -3.3106e-05 0)
(-3.82976e-05 -5.58775e-05 0)
(-4.76211e-05 -8.48976e-05 0)
(-5.68073e-05 -0.000120089 0)
(-6.58759e-05 -0.000161364 0)
(-7.48188e-05 -0.000208644 0)
(-8.36393e-05 -0.000261845 0)
(-9.23362e-05 -0.000320885 0)
(-0.00010091 -0.000385682 0)
(-0.00010936 -0.000456154 0)
(-0.000117688 -0.000532218 0)
(-0.000125891 -0.000613794 0)
(-0.000133972 -0.000700796 0)
(-0.000141926 -0.000793149 0)
(-0.000149757 -0.000890751 0)
(-0.000157467 -0.000993489 0)
(-0.000164986 -0.00110135 0)
(-0.000172385 -0.00121425 0)
(-0.000179706 -0.00133205 0)
(-0.000186897 -0.00145467 0)
(-0.000193975 -0.00158206 0)
(-0.000200928 -0.00171412 0)
(-0.000207759 -0.00185078 0)
(-0.000214466 -0.00199195 0)
(-0.000221051 -0.00213755 0)
(-0.000227512 -0.0022875 0)
(-0.00023385 -0.00244172 0)
(-0.000240065 -0.00260012 0)
(-0.000246156 -0.00276263 0)
(-0.000252125 -0.00292915 0)
(-0.00025797 -0.00309961 0)
(-0.000263692 -0.00327393 0)
(-0.000269291 -0.00345202 0)
(-0.000274766 -0.0036338 0)
(-0.000280119 -0.00381919 0)
(-0.000285348 -0.00400811 0)
(-0.000290454 -0.00420048 0)
(-0.000295437 -0.0043962 0)
(-0.000300296 -0.00459521 0)
(-0.000305033 -0.00479742 0)
(-0.000309646 -0.00500274 0)
(-0.000314136 -0.0052111 0)
(-0.000318503 -0.00542241 0)
(-0.000322747 -0.00563659 0)
(-0.000326867 -0.00585356 0)
(-0.000330865 -0.00607323 0)
(-0.000334739 -0.00629553 0)
(-0.00033849 -0.00652037 0)
(-0.000342118 -0.00674767 0)
(-0.000345623 -0.00697735 0)
(-0.000349005 -0.00720932 0)
(-0.000352263 -0.00744351 0)
(-0.000355398 -0.00767983 0)
(-0.000358411 -0.00791819 0)
(-0.0003613 -0.00815853 0)
(-0.000364065 -0.00840075 0)
(-0.000366708 -0.00864477 0)
(-0.000369228 -0.00889051 0)
(-0.000371624 -0.00913789 0)
(-0.000373898 -0.00938683 0)
(-0.000376048 -0.00963724 0)
(-0.000378075 -0.00988905 0)
(-0.000379979 -0.0101422 0)
(-0.00038176 -0.0103965 0)
(-0.000383417 -0.010652 0)
(-0.000384952 -0.0109086 0)
(-0.000386363 -0.0111661 0)
(-0.000387652 -0.0114245 0)
(-0.000388817 -0.0116838 0)
(-0.000389859 -0.0119438 0)
(-0.000390778 -0.0122044 0)
(-0.000391573 -0.0124656 0)
(-0.000392245 -0.0127273 0)
(-0.000392792 -0.0129894 0)
(-0.000393214 -0.0132519 0)
(-0.000393518 -0.0135146 0)
(-0.000393701 -0.0137774 0)
(-0.000393773 -0.0140405 5.83933e-19)
(2.11758e-22 0 0)
(-6.27925e-06 -4.97571e-06 0)
(-1.27777e-05 -1.48392e-05 0)
(-1.91932e-05 -3.13619e-05 0)
(-2.5486e-05 -5.41576e-05 0)
(-3.17048e-05 -8.32012e-05 0)
(-3.78302e-05 -0.000118416 0)
(-4.38763e-05 -0.000159714 0)
(-4.98383e-05 -0.000207016 0)
(-5.57186e-05 -0.00026024 0)
(-6.15165e-05 -0.000319303 0)
(-6.72324e-05 -0.000384122 0)
(-7.28658e-05 -0.000454617 0)
(-7.84178e-05 -0.000530704 0)
(-8.38865e-05 -0.000612302 0)
(-8.92773e-05 -0.000699327 0)
(-9.45814e-05 -0.0007917 0)
(-9.98336e-05 -0.000889324 0)
(-0.000104968 -0.000992101 0)
(-0.000109896 -0.00109999 0)
(-0.000114819 -0.00121291 0)
(-0.000119732 -0.00133072 0)
(-0.000124529 -0.00145337 0)
(-0.000129251 -0.00158077 0)
(-0.000133886 -0.00171286 0)
(-0.000138441 -0.00184954 0)
(-0.000142912 -0.00199073 0)
(-0.000147302 -0.00213636 0)
(-0.00015161 -0.00228633 0)
(-0.000155835 -0.00244057 0)
(-0.000159978 -0.00259899 0)
(-0.000164039 -0.00276152 0)
(-0.000168018 -0.00292807 0)
(-0.000171915 -0.00309855 0)
(-0.000175729 -0.00327289 0)
(-0.000179462 -0.003451 0)
(-0.000183112 -0.00363281 0)
(-0.00018668 -0.00381822 0)
(-0.000190167 -0.00400716 0)
(-0.000193571 -0.00419955 0)
(-0.000196892 -0.0043953 0)
(-0.000200132 -0.00459433 0)
(-0.00020329 -0.00479656 0)
(-0.000206365 -0.00500191 0)
(-0.000209359 -0.00521029 0)
(-0.00021227 -0.00542162 0)
(-0.000215099 -0.00563582 0)
(-0.000217846 -0.00585281 0)
(-0.000220511 -0.00607251 0)
(-0.000223094 -0.00629483 0)
(-0.000225595 -0.00651969 0)
(-0.000228013 -0.00674702 0)
(-0.00023035 -0.00697672 0)
(-0.000232604 -0.00720871 0)
(-0.000234776 -0.00744292 0)
(-0.000236867 -0.00767926 0)
(-0.000238875 -0.00791765 0)
(-0.000240801 -0.00815801 0)
(-0.000242645 -0.00840025 0)
(-0.000244407 -0.0086443 0)
(-0.000246086 -0.00889006 0)
(-0.000247684 -0.00913747 0)
(-0.000249199 -0.00938643 0)
(-0.000250633 -0.00963686 0)
(-0.000251984 -0.00988869 0)
(-0.000253254 -0.0101418 0)
(-0.000254441 -0.0103962 0)
(-0.000255546 -0.0106517 0)
(-0.000256569 -0.0109083 0)
(-0.00025751 -0.0111658 0)
(-0.000258369 -0.0114243 0)
(-0.000259145 -0.0116836 0)
(-0.00025984 -0.0119436 0)
(-0.000260453 -0.0122043 0)
(-0.000260983 -0.0124655 0)
(-0.000261434 -0.0127272 0)
(-0.000261797 -0.0129893 0)
(-0.00026207 -0.0132518 0)
(-0.000262268 -0.0135145 0)
(-0.000262377 -0.0137774 0)
(-0.000262417 -0.0140403 -1.16574e-18)
(-4.23516e-22 -1.05879e-22 0)
(-3.09983e-06 -4.07448e-06 0)
(-6.36404e-06 -1.38334e-05 0)
(-9.57645e-06 -3.03643e-05 0)
(-1.27281e-05 -5.31739e-05 0)
(-1.58387e-05 -8.2233e-05 0)
(-1.89019e-05 -0.000117462 0)
(-2.1925e-05 -0.000158773 0)
(-2.4906e-05 -0.000206088 0)
(-2.78462e-05 -0.000259325 0)
(-3.0745e-05 -0.0003184 0)
(-3.3603e-05 -0.000383233 0)
(-3.64196e-05 -0.00045374 0)
(-3.91958e-05 -0.00052984 0)
(-4.19298e-05 -0.00061145 0)
(-4.46273e-05 -0.000698487 0)
(-4.72761e-05 -0.000790869 0)
(-4.99172e-05 -0.00088851 0)
(-5.24446e-05 -0.000991335 0)
(-5.48493e-05 -0.00109924 0)
(-5.73317e-05 -0.00121213 0)
(-5.98088e-05 -0.00132995 0)
(-6.22111e-05 -0.00145262 0)
(-6.45755e-05 -0.00158004 0)
(-6.68935e-05 -0.00171214 0)
(-6.91712e-05 -0.00184883 0)
(-7.14069e-05 -0.00199004 0)
(-7.36018e-05 -0.00213568 0)
(-7.57554e-05 -0.00228566 0)
(-7.78681e-05 -0.00243991 0)
(-7.99396e-05 -0.00259835 0)
(-8.19701e-05 -0.00276089 0)
(-8.39595e-05 -0.00292745 0)
(-8.59078e-05 -0.00309795 0)
(-8.78151e-05 -0.0032723 0)
(-8.96813e-05 -0.00345043 0)
(-9.15064e-05 -0.00363224 0)
(-9.32905e-05 -0.00381767 0)
(-9.50335e-05 -0.00400662 0)
(-9.67355e-05 -0.00419902 0)
(-9.83964e-05 -0.00439479 0)
(-0.000100016 -0.00459383 0)
(-0.000101595 -0.00479607 0)
(-0.000103133 -0.00500143 0)
(-0.000104629 -0.00520982 0)
(-0.000106085 -0.00542117 0)
(-0.0001075 -0.00563539 0)
(-0.000108873 -0.00585239 0)
(-0.000110206 -0.0060721 0)
(-0.000111497 -0.00629443 0)
(-0.000112747 -0.00651931 0)
(-0.000113957 -0.00674664 0)
(-0.000115125 -0.00697636 0)
(-0.000116252 -0.00720837 0)
(-0.000117338 -0.00744259 0)
(-0.000118383 -0.00767894 0)
(-0.000119387 -0.00791734 0)
(-0.00012035 -0.00815771 0)
(-0.000121272 -0.00839997 0)
(-0.000122153 -0.00864403 0)
(-0.000122993 -0.0088898 0)
(-0.000123792 -0.00913722 0)
(-0.000124549 -0.00938619 0)
(-0.000125266 -0.00963664 0)
(-0.000125942 -0.00988848 0)
(-0.000126576 -0.0101416 0)
(-0.00012717 -0.010396 0)
(-0.000127723 -0.0106515 0)
(-0.000128234 -0.0109081 0)
(-0.000128704 -0.0111657 0)
(-0.000129134 -0.0114242 0)
(-0.000129522 -0.0116835 0)
(-0.00012987 -0.0119435 0)
(-0.000130176 -0.0122042 0)
(-0.000130442 -0.0124654 0)
(-0.000130668 -0.0127272 0)
(-0.000130851 -0.0129893 0)
(-0.000130983 -0.0132518 0)
(-0.000131077 -0.0135145 0)
(-0.00013113 -0.0137774 0)
(-0.000131148 -0.0140403 -5.83089e-19)
(5.14331e-23 5.29367e-23 0)
(8.55675e-11 -3.75685e-06 0)
(1.79604e-10 -1.34745e-05 0)
(2.75315e-10 -3.00059e-05 0)
(3.71617e-10 -5.28204e-05 0)
(4.6564e-10 -8.1885e-05 0)
(5.62753e-10 -0.000117119 0)
(6.52006e-10 -0.000158434 0)
(7.56084e-10 -0.000205755 0)
(8.29325e-10 -0.000258996 0)
(9.63091e-10 -0.000318076 0)
(9.65104e-10 -0.000382913 0)
(1.21289e-09 -0.000453425 0)
(8.75337e-10 -0.000529529 0)
(1.68324e-09 -0.000611144 0)
(-9.80658e-12 -0.000698187 0)
(5.41275e-09 -0.000790572 0)
(3.59907e-09 -0.000888224 0)
(4.52184e-08 -0.000991066 0)
(9.68495e-08 -0.00109897 0)
(8.69319e-08 -0.00121185 0)
(7.90882e-08 -0.00132968 0)
(7.68209e-08 -0.00145235 0)
(7.36499e-08 -0.00157977 0)
(7.35525e-08 -0.00171188 0)
(7.30245e-08 -0.00184858 0)
(7.31922e-08 -0.00198979 0)
(7.31767e-08 -0.00213543 0)
(7.32985e-08 -0.00228542 0)
(7.33603e-08 -0.00243968 0)
(7.34508e-08 -0.00259812 0)
(7.35247e-08 -0.00276066 0)
(7.36044e-08 -0.00292723 0)
(7.36786e-08 -0.00309773 0)
(7.37527e-08 -0.00327209 0)
(7.38245e-08 -0.00345022 0)
(7.38962e-08 -0.00363204 0)
(7.3967e-08 -0.00381747 0)
(7.40367e-08 -0.00400643 0)
(7.41043e-08 -0.00419883 0)
(7.41701e-08 -0.0043946 0)
(7.42345e-08 -0.00459365 0)
(7.42985e-08 -0.0047959 0)
(7.43618e-08 -0.00500126 0)
(7.44231e-08 -0.00520966 0)
(7.4482e-08 -0.00542101 0)
(7.45394e-08 -0.00563523 0)
(7.45961e-08 -0.00585224 0)
(7.46519e-08 -0.00607195 0)
(7.47057e-08 -0.00629429 0)
(7.47571e-08 -0.00651917 0)
(7.48059e-08 -0.00674651 0)
(7.48534e-08 -0.00697623 0)
(7.49006e-08 -0.00720824 0)
(7.49459e-08 -0.00744247 0)
(7.49895e-08 -0.00767883 0)
(7.50324e-08 -0.00791723 0)
(7.50728e-08 -0.00815761 0)
(7.51097e-08 -0.00839987 0)
(7.51462e-08 -0.00864393 0)
(7.51822e-08 -0.00888971 0)
(7.5215e-08 -0.00913713 0)
(7.52464e-08 -0.00938611 0)
(7.52759e-08 -0.00963656 0)
(7.53032e-08 -0.00988841 0)
(7.53293e-08 -0.0101416 0)
(7.53547e-08 -0.0103959 0)
(7.53755e-08 -0.0106515 0)
(7.53974e-08 -0.0109081 0)
(7.54074e-08 -0.0111656 0)
(7.54328e-08 -0.0114241 0)
(7.54069e-08 -0.0116834 0)
(7.5416e-08 -0.0119434 0)
(7.52084e-08 -0.0122041 0)
(7.51103e-08 -0.0124654 0)
(7.45781e-08 -0.0127271 0)
(7.4126e-08 -0.0129893 0)
(7.77661e-08 -0.0132518 0)
(8.04874e-08 -0.0135145 0)
(8.02424e-08 -0.0137774 0)
(8.06976e-08 -0.0140402 5.82755e-19)
(-8.29191e-22 3.08524e-22 0)
(3.1e-06 -4.07451e-06 0)
(6.3644e-06 -1.38335e-05 0)
(9.57701e-06 -3.03643e-05 0)
(1.27288e-05 -5.31739e-05 0)
(1.58397e-05 -8.2233e-05 0)
(1.8903e-05 -0.000117462 0)
(2.19263e-05 -0.000158773 0)
(2.49075e-05 -0.000206088 0)
(2.78478e-05 -0.000259325 0)
(3.0747e-05 -0.0003184 0)
(3.36049e-05 -0.000383233 0)
(3.6422e-05 -0.00045374 0)
(3.91975e-05 -0.00052984 0)
(4.19329e-05 -0.00061145 0)
(4.46256e-05 -0.000698488 0)
(4.72821e-05 -0.000790871 0)
(4.98955e-05 -0.000888522 0)
(5.24835e-05 -0.000991356 0)
(5.50373e-05 -0.00109925 0)
(5.75237e-05 -0.00121213 0)
(5.99652e-05 -0.00132995 0)
(6.23649e-05 -0.00145262 0)
(6.47225e-05 -0.00158004 0)
(6.70406e-05 -0.00171214 0)
(6.93172e-05 -0.00184883 0)
(7.15533e-05 -0.00199004 0)
(7.37481e-05 -0.00213568 0)
(7.5902e-05 -0.00228566 0)
(7.80148e-05 -0.00243991 0)
(8.00865e-05 -0.00259835 0)
(8.21171e-05 -0.00276089 0)
(8.41067e-05 -0.00292745 0)
(8.60552e-05 -0.00309795 0)
(8.79626e-05 -0.0032723 0)
(8.98289e-05 -0.00345043 0)
(9.16542e-05 -0.00363224 0)
(9.34385e-05 -0.00381767 0)
(9.51816e-05 -0.00400662 0)
(9.68837e-05 -0.00419902 0)
(9.85447e-05 -0.00439479 0)
(0.000100165 -0.00459383 0)
(0.000101744 -0.00479607 0)
(0.000103281 -0.00500143 0)
(0.000104778 -0.00520982 0)
(0.000106234 -0.00542117 0)
(0.000107649 -0.00563539 0)
(0.000109022 -0.00585239 0)
(0.000110355 -0.0060721 0)
(0.000111646 -0.00629443 0)
(0.000112897 -0.00651931 0)
(0.000114106 -0.00674664 0)
(0.000115274 -0.00697636 0)
(0.000116402 -0.00720837 0)
(0.000117488 -0.00744259 0)
(0.000118533 -0.00767894 0)
(0.000119537 -0.00791734 0)
(0.0001205 -0.00815771 0)
(0.000121422 -0.00839997 0)
(0.000122303 -0.00864403 0)
(0.000123143 -0.0088898 0)
(0.000123942 -0.00913722 0)
(0.0001247 -0.00938619 0)
(0.000125417 -0.00963664 0)
(0.000126092 -0.00988848 0)
(0.000126727 -0.0101416 0)
(0.000127321 -0.010396 0)
(0.000127873 -0.0106515 0)
(0.000128385 -0.0109081 0)
(0.000128855 -0.0111657 0)
(0.000129285 -0.0114242 0)
(0.000129673 -0.0116835 0)
(0.000130021 -0.0119435 0)
(0.000130327 -0.0122042 0)
(0.000130592 -0.0124654 0)
(0.000130816 -0.0127272 0)
(0.000130999 -0.0129893 0)
(0.000131141 -0.0132518 0)
(0.00013124 -0.0135145 0)
(0.000131291 -0.0137774 0)
(0.00013131 -0.0140403 5.82916e-19)
(-7.08099e-22 3.62026e-22 0)
(6.27943e-06 -4.97576e-06 0)
(1.2778e-05 -1.48393e-05 0)
(1.91937e-05 -3.1362e-05 0)
(2.54868e-05 -5.41576e-05 0)
(3.17058e-05 -8.32013e-05 0)
(3.78314e-05 -0.000118416 0)
(4.38776e-05 -0.000159714 0)
(4.98398e-05 -0.000207016 0)
(5.57203e-05 -0.00026024 0)
(6.15184e-05 -0.000319303 0)
(6.72343e-05 -0.000384122 0)
(7.28682e-05 -0.000454617 0)
(7.84196e-05 -0.000530704 0)
(8.38896e-05 -0.000612301 0)
(8.92764e-05 -0.000699327 0)
(9.4584e-05 -0.000791697 0)
(9.98088e-05 -0.000889336 0)
(0.000104956 -0.000992158 0)
(0.000110019 -0.00110004 0)
(0.00011499 -0.0012129 0)
(0.000119877 -0.00133071 0)
(0.000124678 -0.00145336 0)
(0.000129397 -0.00158077 0)
(0.000134033 -0.00171286 0)
(0.000138587 -0.00184954 0)
(0.000143059 -0.00199073 0)
(0.000147449 -0.00213636 0)
(0.000151756 -0.00228633 0)
(0.000155982 -0.00244057 0)
(0.000160125 -0.00259899 0)
(0.000164186 -0.00276152 0)
(0.000168165 -0.00292807 0)
(0.000172062 -0.00309855 0)
(0.000175877 -0.00327289 0)
(0.000179609 -0.003451 0)
(0.00018326 -0.00363281 0)
(0.000186828 -0.00381822 0)
(0.000190315 -0.00400716 0)
(0.000193719 -0.00419955 0)
(0.000197041 -0.0043953 0)
(0.000200281 -0.00459433 0)
(0.000203438 -0.00479656 0)
(0.000206514 -0.00500191 0)
(0.000209508 -0.00521029 0)
(0.000212419 -0.00542162 0)
(0.000215248 -0.00563582 0)
(0.000217995 -0.00585281 0)
(0.00022066 -0.00607251 0)
(0.000223243 -0.00629483 0)
(0.000225744 -0.00651969 0)
(0.000228163 -0.00674702 0)
(0.000230499 -0.00697672 0)
(0.000232754 -0.00720871 0)
(0.000234926 -0.00744292 0)
(0.000237017 -0.00767926 0)
(0.000239025 -0.00791765 0)
(0.000240951 -0.00815801 0)
(0.000242795 -0.00840025 0)
(0.000244557 -0.0086443 0)
(0.000246237 -0.00889006 0)
(0.000247834 -0.00913747 0)
(0.00024935 -0.00938643 0)
(0.000250783 -0.00963686 0)
(0.000252135 -0.00988869 0)
(0.000253404 -0.0101418 0)
(0.000254591 -0.0103962 0)
(0.000255697 -0.0106517 0)
(0.00025672 -0.0109083 0)
(0.000257661 -0.0111658 0)
(0.00025852 -0.0114243 0)
(0.000259296 -0.0116836 0)
(0.000259991 -0.0119436 0)
(0.000260604 -0.0122043 0)
(0.000261134 -0.0124655 0)
(0.000261583 -0.0127272 0)
(0.000261949 -0.0129894 0)
(0.000262232 -0.0132518 0)
(0.000262431 -0.0135145 0)
(0.000262538 -0.0137774 0)
(0.000262579 -0.0140403 -2.92121e-19)
(8.47033e-22 -8.47033e-22 0)
(9.68729e-06 -6.62357e-06 0)
(1.9278e-05 -1.66024e-05 0)
(2.88837e-05 -3.31061e-05 0)
(3.82984e-05 -5.58776e-05 0)
(4.76221e-05 -8.48978e-05 0)
(5.68084e-05 -0.000120089 0)
(6.58772e-05 -0.000161364 0)
(7.48203e-05 -0.000208644 0)
(8.3641e-05 -0.000261845 0)
(9.23381e-05 -0.000320885 0)
(0.000100912 -0.000385682 0)
(0.000109363 -0.000456154 0)
(0.00011769 -0.000532218 0)
(0.000125894 -0.000613792 0)
(0.000133975 -0.000700796 0)
(0.000141933 -0.000793145 0)
(0.000149767 -0.000890761 0)
(0.000157474 -0.000993558 0)
(0.000165053 -0.00110141 0)
(0.000172507 -0.00121426 0)
(0.000179838 -0.00133204 0)
(0.000187041 -0.00145467 0)
(0.000194119 -0.00158206 0)
(0.000201074 -0.00171412 0)
(0.000207905 -0.00185078 0)
(0.000214613 -0.00199195 0)
(0.000221197 -0.00213755 0)
(0.000227659 -0.0022875 0)
(0.000233997 -0.00244172 0)
(0.000240212 -0.00260012 0)
(0.000246303 -0.00276263 0)
(0.000252272 -0.00292915 0)
(0.000258117 -0.00309961 0)
(0.000263839 -0.00327393 0)
(0.000269438 -0.00345202 0)
(0.000274914 -0.0036338 0)
(0.000280266 -0.00381919 0)
(0.000285496 -0.00400811 0)
(0.000290602 -0.00420048 0)
(0.000295585 -0.0043962 0)
(0.000300445 -0.00459521 0)
(0.000305181 -0.00479742 0)
(0.000309795 -0.00500274 0)
(0.000314285 -0.0052111 0)
(0.000318652 -0.00542241 0)
(0.000322896 -0.00563659 0)
(0.000327017 -0.00585356 0)
(0.000331014 -0.00607323 0)
(0.000334888 -0.00629553 0)
(0.00033864 -0.00652037 0)
(0.000342268 -0.00674767 0)
(0.000345773 -0.00697735 0)
(0.000349154 -0.00720932 0)
(0.000352413 -0.00744351 0)
(0.000355548 -0.00767983 0)
(0.000358561 -0.00791819 0)
(0.00036145 -0.00815853 0)
(0.000364216 -0.00840075 0)
(0.000366859 -0.00864477 0)
(0.000369378 -0.00889051 0)
(0.000371775 -0.00913789 0)
(0.000374048 -0.00938683 0)
(0.000376198 -0.00963724 0)
(0.000378226 -0.00988905 0)
(0.00038013 -0.0101422 0)
(0.00038191 -0.0103965 0)
(0.000383568 -0.010652 0)
(0.000385103 -0.0109086 0)
(0.000386514 -0.0111661 0)
(0.000387802 -0.0114245 0)
(0.000388968 -0.0116838 0)
(0.00039001 -0.0119438 0)
(0.000390929 -0.0122044 0)
(0.000391725 -0.0124656 0)
(0.000392398 -0.0127273 0)
(0.000392948 -0.0129894 0)
(0.000393374 -0.0132519 0)
(0.000393679 -0.0135146 0)
(0.000393861 -0.0137774 0)
(0.000393934 -0.0140405 -5.82779e-19)
(1.92194e-06 -1.22956e-06 3.41058e-20)
(1.36907e-05 -8.89599e-06 2.0062e-20)
(2.5869e-05 -1.89121e-05 -5.58495e-21)
(3.8657e-05 -3.53985e-05 -4.89833e-20)
(5.11903e-05 -5.81375e-05 -5.14966e-20)
(6.36179e-05 -8.71307e-05 5.2394e-20)
(7.5866e-05 -0.000122291 7.66887e-20)
(8.7957e-05 -0.000163537 -3.44964e-20)
(9.98812e-05 -0.000210787 -1.34335e-20)
(0.000111642 -0.000263958 1.44271e-19)
(0.000123238 -0.000322968 1.45589e-19)
(0.00013467 -0.000387736 -3.89457e-20)
(0.000145938 -0.000458178 -1.27884e-19)
(0.00015704 -0.000534213 -1.11831e-19)
(0.00016798 -0.000615757 -5.84616e-20)
(0.000178753 -0.000702731 1.17481e-19)
(0.000189364 -0.00079505 7.36041e-20)
(0.000199809 -0.000892635 -1.09186e-19)
(0.000210076 -0.000995401 -7.13985e-20)
(0.000220169 -0.00110323 -1.70661e-19)
(0.000230105 -0.00121604 -2.26019e-19)
(0.00023988 -0.00133379 1.04854e-19)
(0.000249484 -0.00145639 8.61149e-20)
(0.000258922 -0.00158375 -1.90141e-19)
(0.000268195 -0.00171578 -1.13614e-19)
(0.000277303 -0.00185241 7.82919e-20)
(0.000286247 -0.00199355 2.7694e-19)
(0.000295026 -0.00213913 1.98709e-20)
(0.000303641 -0.00228905 -3.00121e-19)
(0.000312092 -0.00244323 4.75114e-20)
(0.000320379 -0.00260161 7.90518e-20)
(0.000328501 -0.00276408 -4.88466e-20)
(0.000336459 -0.00293057 2.32285e-19)
(0.000344253 -0.00310101 3.94665e-20)
(0.000351882 -0.00327529 -2.51554e-19)
(0.000359347 -0.00345335 -2.45032e-21)
(0.000366648 -0.00363511 3.50995e-19)
(0.000373785 -0.00382047 1.35425e-19)
(0.000380757 -0.00400936 -3.84343e-19)
(0.000387565 -0.00420169 -1.09381e-19)
(0.000394209 -0.00439739 2.64248e-19)
(0.000400689 -0.00459637 1.01417e-19)
(0.000407005 -0.00479854 -1.22686e-19)
(0.000413156 -0.00500384 -4.49473e-21)
(0.000419143 -0.00521217 2.29437e-19)
(0.000424965 -0.00542345 -6.68196e-20)
(0.000430624 -0.0056376 -4.36752e-21)
(0.000436118 -0.00585454 5.10867e-20)
(0.000441448 -0.00607418 -1.27224e-19)
(0.000446614 -0.00629645 1.78095e-19)
(0.000451616 -0.00652126 -1.39416e-20)
(0.000456453 -0.00674853 -1.9599e-19)
(0.000461126 -0.00697818 -1.31547e-19)
(0.000465635 -0.00721012 -1.42303e-21)
(0.00046998 -0.00744428 3.24168e-19)
(0.00047416 -0.00768057 -4.96698e-21)
(0.000478177 -0.0079189 -2.69139e-19)
(0.000482029 -0.00815921 -6.97319e-20)
(0.000485717 -0.0084014 2.01695e-19)
(0.000489241 -0.00864539 4.03062e-19)
(0.0004926 -0.0088911 -1.25092e-20)
(0.000495795 -0.00913846 -4.20883e-19)
(0.000498827 -0.00938736 -3.49792e-19)
(0.000501694 -0.00963775 6.72688e-20)
(0.000504396 -0.00988952 4.17791e-19)
(0.000506935 -0.0101426 -3.98401e-21)
(0.00050931 -0.0103969 -2.14091e-19)
(0.00051152 -0.0106524 -1.43707e-19)
(0.000513566 -0.0109089 -1.42819e-19)
(0.000515448 -0.0111664 3.57596e-19)
(0.000517166 -0.0114248 3.55412e-19)
(0.000518719 -0.011684 -2.19495e-19)
(0.000520109 -0.011944 -2.89649e-19)
(0.000521334 -0.0122046 -6.94271e-22)
(0.000522395 -0.0124658 3.61998e-19)
(0.000523293 -0.0127275 2.16722e-19)
(0.000524026 -0.0129896 -3.65551e-19)
(0.000524596 -0.013252 -2.19179e-19)
(0.00052501 -0.0135146 1.45543e-19)
(0.000525294 -0.0137775 -3.65418e-19)
(0.000525421 -0.0140406 -2.91903e-19)
(-1.92191e-06 -1.22954e-06 -2.82182e-21)
(-1.36905e-05 -8.89586e-06 -6.52939e-21)
(-2.58686e-05 -1.8912e-05 -1.82901e-20)
(-3.86564e-05 -3.53983e-05 2.46967e-20)
(-5.11896e-05 -5.81374e-05 4.39812e-20)
(-6.3617e-05 -8.71305e-05 -3.78616e-20)
(-7.58649e-05 -0.000122291 -3.91161e-20)
(-8.79557e-05 -0.000163537 6.72578e-23)
(-9.98797e-05 -0.000210787 -6.55486e-23)
(-0.00011164 -0.000263958 6.62717e-23)
(-0.000123236 -0.000322968 -8.99699e-20)
(-0.000134668 -0.000387736 -7.85195e-20)
(-0.000145935 -0.000458178 1.16793e-19)
(-0.000157038 -0.000534212 1.50883e-19)
(-0.000167976 -0.000615758 -5.243e-21)
(-0.00017875 -0.000702731 5.13349e-21)
(-0.000189353 -0.000795052 1.51226e-19)
(-0.000199779 -0.000892624 -1.82112e-20)
(-0.000210043 -0.000995332 -1.22234e-19)
(-0.000220106 -0.00110315 5.66278e-20)
(-0.000230003 -0.00121603 -1.35472e-19)
(-0.000239754 -0.0013338 -4.26665e-19)
(-0.000249341 -0.0014564 -1.46536e-19)
(-0.000258778 -0.00158375 2.72816e-19)
(-0.000268049 -0.00171578 2.64693e-19)
(-0.000277157 -0.00185241 -2.50521e-21)
(-0.0002861 -0.00199355 -3.52399e-19)
(-0.00029488 -0.00213913 -1.78694e-19)
(-0.000303495 -0.00228905 2.27142e-19)
(-0.000311945 -0.00244323 1.38454e-19)
(-0.000320232 -0.00260161 1.01754e-19)
(-0.000328354 -0.00276408 5.86151e-21)
(-0.000336312 -0.00293057 -8.61019e-20)
(-0.000344105 -0.00310101 7.73003e-21)
(-0.000351735 -0.00327529 1.0945e-19)
(-0.0003592 -0.00345335 3.11055e-19)
(-0.0003665 -0.00363511 -5.10593e-20)
(-0.000373637 -0.00382047 -3.60725e-19)
(-0.000380609 -0.00400936 -4.59711e-20)
(-0.000387417 -0.00420169 -2.11445e-19)
(-0.000394061 -0.00439739 -3.15055e-19)
(-0.000400541 -0.00459637 -4.23127e-20)
(-0.000406856 -0.00479854 1.83411e-19)
(-0.000413007 -0.00500384 3.55491e-19)
(-0.000418994 -0.00521217 -1.17345e-19)
(-0.000424816 -0.00542345 -2.84137e-19)
(-0.000430475 -0.0056376 1.46137e-20)
(-0.000435969 -0.00585454 1.34951e-19)
(-0.000441299 -0.00607418 3.1452e-19)
(-0.000446465 -0.00629645 -1.2692e-19)
(-0.000451466 -0.00652126 -3.05206e-19)
(-0.000456303 -0.00674853 8.68074e-21)
(-0.000460976 -0.00697818 1.36982e-19)
(-0.000465485 -0.00721012 3.3271e-19)
(-0.00046983 -0.00744428 -1.30331e-19)
(-0.00047401 -0.00768057 -1.89976e-19)
(-0.000478027 -0.0079189 1.37961e-19)
(-0.000481879 -0.00815921 5.18651e-21)
(-0.000485567 -0.0084014 5.18651e-21)
(-0.00048909 -0.00864539 2.02487e-21)
(-0.00049245 -0.0088911 2.07999e-19)
(-0.000495645 -0.00913846 6.77941e-20)
(-0.000498676 -0.00938736 1.39817e-19)
(-0.000501543 -0.00963775 2.76912e-19)
(-0.000504246 -0.00988952 -2.82085e-19)
(-0.000506784 -0.0101426 -1.38863e-19)
(-0.000509159 -0.0103969 -6.97027e-20)
(-0.000511369 -0.0106524 -6.61413e-20)
(-0.000513415 -0.0109089 3.60126e-19)
(-0.000515297 -0.0111664 -7.24757e-20)
(-0.000517015 -0.0114248 -2.86281e-19)
(-0.000518568 -0.011684 -7.04169e-20)
(-0.000519958 -0.011944 2.19053e-19)
(-0.000521183 -0.0122046 2.89668e-19)
(-0.000522243 -0.0124658 -5.08678e-19)
(-0.000523139 -0.0127275 -1.43498e-19)
(-0.00052387 -0.0129896 3.64526e-19)
(-0.000524438 -0.013252 -1.45628e-19)
(-0.000524851 -0.0135146 7.34735e-20)
(-0.000525134 -0.0137775 3.64872e-19)
(-0.000525259 -0.0140406 1.45963e-18)
(-1.55623e-22 -1.40178e-22 0)
(-9.6871e-06 -6.62347e-06 0)
(-1.92777e-05 -1.66023e-05 0)
(-2.88832e-05 -3.3106e-05 0)
(-3.82976e-05 -5.58775e-05 0)
(-4.76211e-05 -8.48976e-05 0)
(-5.68073e-05 -0.000120089 0)
(-6.58759e-05 -0.000161364 0)
(-7.48188e-05 -0.000208644 0)
(-8.36393e-05 -0.000261845 0)
(-9.23362e-05 -0.000320885 0)
(-0.00010091 -0.000385682 0)
(-0.00010936 -0.000456154 0)
(-0.000117688 -0.000532218 0)
(-0.000125891 -0.000613794 0)
(-0.000133972 -0.000700796 0)
(-0.000141926 -0.000793149 0)
(-0.000149757 -0.000890751 0)
(-0.000157467 -0.000993489 0)
(-0.000164986 -0.00110135 0)
(-0.000172385 -0.00121425 0)
(-0.000179706 -0.00133205 0)
(-0.000186897 -0.00145467 0)
(-0.000193975 -0.00158206 0)
(-0.000200928 -0.00171412 0)
(-0.000207759 -0.00185078 0)
(-0.000214466 -0.00199195 0)
(-0.000221051 -0.00213755 0)
(-0.000227512 -0.0022875 0)
(-0.00023385 -0.00244172 0)
(-0.000240065 -0.00260012 0)
(-0.000246156 -0.00276263 0)
(-0.000252125 -0.00292915 0)
(-0.00025797 -0.00309961 0)
(-0.000263692 -0.00327393 0)
(-0.000269291 -0.00345202 0)
(-0.000274766 -0.0036338 0)
(-0.000280119 -0.00381919 0)
(-0.000285348 -0.00400811 0)
(-0.000290454 -0.00420048 0)
(-0.000295437 -0.0043962 0)
(-0.000300296 -0.00459521 0)
(-0.000305033 -0.00479742 0)
(-0.000309646 -0.00500274 0)
(-0.000314136 -0.0052111 0)
(-0.000318503 -0.00542241 0)
(-0.000322747 -0.00563659 0)
(-0.000326867 -0.00585356 0)
(-0.000330865 -0.00607323 0)
(-0.000334739 -0.00629553 0)
(-0.00033849 -0.00652037 0)
(-0.000342118 -0.00674767 0)
(-0.000345623 -0.00697735 0)
(-0.000349005 -0.00720932 0)
(-0.000352263 -0.00744351 0)
(-0.000355398 -0.00767983 0)
(-0.000358411 -0.00791819 0)
(-0.0003613 -0.00815853 0)
(-0.000364065 -0.00840075 0)
(-0.000366708 -0.00864477 0)
(-0.000369228 -0.00889051 0)
(-0.000371624 -0.00913789 0)
(-0.000373898 -0.00938683 0)
(-0.000376048 -0.00963724 0)
(-0.000378075 -0.00988905 0)
(-0.000379979 -0.0101422 0)
(-0.00038176 -0.0103965 0)
(-0.000383417 -0.010652 0)
(-0.000384952 -0.0109086 0)
(-0.000386363 -0.0111661 0)
(-0.000387652 -0.0114245 0)
(-0.000388817 -0.0116838 0)
(-0.000389859 -0.0119438 0)
(-0.000390778 -0.0122044 0)
(-0.000391573 -0.0124656 0)
(-0.000392245 -0.0127273 0)
(-0.000392792 -0.0129894 0)
(-0.000393214 -0.0132519 0)
(-0.000393518 -0.0135146 0)
(-0.000393701 -0.0137774 0)
(-0.000393773 -0.0140405 5.83933e-19)
(4.23516e-22 0 0)
(-6.27925e-06 -4.97571e-06 0)
(-1.27777e-05 -1.48392e-05 0)
(-1.91932e-05 -3.13619e-05 0)
(-2.5486e-05 -5.41576e-05 0)
(-3.17048e-05 -8.32012e-05 0)
(-3.78302e-05 -0.000118416 0)
(-4.38763e-05 -0.000159714 0)
(-4.98383e-05 -0.000207016 0)
(-5.57186e-05 -0.00026024 0)
(-6.15165e-05 -0.000319303 0)
(-6.72324e-05 -0.000384122 0)
(-7.28658e-05 -0.000454617 0)
(-7.84178e-05 -0.000530704 0)
(-8.38865e-05 -0.000612302 0)
(-8.92773e-05 -0.000699327 0)
(-9.45814e-05 -0.0007917 0)
(-9.98336e-05 -0.000889324 0)
(-0.000104968 -0.000992101 0)
(-0.000109896 -0.00109999 0)
(-0.000114819 -0.00121291 0)
(-0.000119732 -0.00133072 0)
(-0.000124529 -0.00145337 0)
(-0.000129251 -0.00158077 0)
(-0.000133886 -0.00171286 0)
(-0.000138441 -0.00184954 0)
(-0.000142912 -0.00199073 0)
(-0.000147302 -0.00213636 0)
(-0.00015161 -0.00228633 0)
(-0.000155835 -0.00244057 0)
(-0.000159978 -0.00259899 0)
(-0.000164039 -0.00276152 0)
(-0.000168018 -0.00292807 0)
(-0.000171915 -0.00309855 0)
(-0.000175729 -0.00327289 0)
(-0.000179462 -0.003451 0)
(-0.000183112 -0.00363281 0)
(-0.00018668 -0.00381822 0)
(-0.000190167 -0.00400716 0)
(-0.000193571 -0.00419955 0)
(-0.000196892 -0.0043953 0)
(-0.000200132 -0.00459433 0)
(-0.00020329 -0.00479656 0)