/*--------------------------------*- C++ -*----------------------------------*\
| =========                 |                                                 |
| \\      /  F ield         | foam-extend: Open Source CFD                    |
|  \\    /   O peration     | Version:     4.0                                |
|   \\  /    A nd           | Web:         http://www.foam-extend.org         |
|    \\/     M anipulation  |                                                 |
\*---------------------------------------------------------------------------*/
FoamFile
{
    version     2.0;
    format      ascii;
    class       volSymmTensorField;
    location    "1";
    object      sigma;
}
// * * * * * * * * * * * * * * * * * * * * * * * * * * * * * * * * * * * * * //

dimensions      [1 -1 -2 0 0 0 0];

internalField   nonuniform List<symmTensor> 
640
(
(-1.02911e+08 -4.92634e+06 -1.90623e-08 -4.7266e+06 -1.7365e-08 -3.22912e+07)
(-9.8018e+07 -320052 -2.71291e-07 -1.47745e+06 -6.29967e-08 -2.98486e+07)
(-9.9224e+07 -170885 1.43186e-07 -1.83668e+06 -1.62112e-07 -3.03182e+07)
(-9.71677e+07 -307327 1.84768e-06 -1.72275e+06 4.66072e-07 -2.96671e+07)
(-9.63518e+07 -293254 -1.43161e-06 -1.74523e+06 7.52366e-08 -2.94291e+07)
(-9.49448e+07 -319929 -1.25132e-06 -1.7212e+06 -5.41227e-07 -2.89998e+07)
(-9.37371e+07 -317160 1.12479e-06 -1.70124e+06 5.97972e-08 -2.86315e+07)
(-9.24411e+07 -320515 -1.28885e-06 -1.6784e+06 -5.89694e-08 -2.82359e+07)
(-9.11765e+07 -319942 1.45067e-06 -1.65546e+06 5.81627e-08 -2.78496e+07)
(-8.98981e+07 -320356 -1.61025e-06 -1.63234e+06 -5.7347e-08 -2.74591e+07)
(-8.86265e+07 -320261 1.42587e-06 -1.60932e+06 -1.04998e-06 -2.70708e+07)
(-8.73486e+07 -320391 2.88399e-06 -1.58599e+06 8.35812e-08 -2.66804e+07)
(-8.608e+07 -320587 2.40738e-06 -1.56352e+06 1.35387e-06 -2.6293e+07)
(-8.47913e+07 -321596 -2.09533e-06 -1.53909e+06 5.03148e-07 -2.58991e+07)
(-8.35311e+07 -323179 1.05838e-06 -1.52079e+06 -5.67677e-07 -2.55156e+07)
(-8.2201e+07 -333113 1.26776e-07 -1.48678e+06 6.30858e-07 -2.51063e+07)
(-8.08863e+07 -338304 -5.07845e-06 -1.50261e+06 1.23038e-06 -2.47167e+07)
(-7.95584e+07 -351820 -3.04971e-06 -1.38803e+06 -1.45452e-06 -2.42839e+07)
(-7.78407e+07 -463037 -2.94298e-06 -1.2572e+06 -4.98983e-08 -2.37294e+07)
(-7.6706e+07 -292021 -1.42299e-06 -1.4624e+06 7.46857e-07 -2.34505e+07)
(-7.56409e+07 -324815 -3.49876e-07 -1.41764e+06 -2.4142e-06 -2.31176e+07)
(-7.43328e+07 -307502 6.29479e-06 -1.35124e+06 -2.83707e-06 -2.27052e+07)
(-7.31635e+07 -315798 1.22861e-05 -1.33286e+06 1.03355e-06 -2.23489e+07)
(-7.18659e+07 -318661 5.68586e-06 -1.30483e+06 2.32419e-06 -2.19512e+07)
(-7.06141e+07 -319626 1.08902e-07 -1.28269e+06 9.3357e-07 -2.1569e+07)
(-6.93333e+07 -320220 -1.06927e-07 -1.25892e+06 -9.64404e-07 -2.11777e+07)
(-6.80636e+07 -320277 9.57225e-06 -1.23597e+06 -3.37282e-06 -2.07899e+07)
(-6.67882e+07 -320325 1.44344e-05 -1.21272e+06 1.1735e-06 -2.04003e+07)
(-6.55153e+07 -320318 4.36285e-06 -1.18963e+06 1.6221e-06 -2.00115e+07)
(-6.42413e+07 -320318 8.65129e-06 -1.16648e+06 8.19605e-08 -1.96223e+07)
(-6.29678e+07 -320317 6.75374e-06 -1.14337e+06 1.1704e-06 -1.92334e+07)
(-6.16942e+07 -320316 4.45247e-06 -1.12024e+06 -1.09826e-06 -1.88443e+07)
(-6.04207e+07 -320315 4.65523e-06 -1.09711e+06 3.8543e-08 -1.84553e+07)
(-5.91472e+07 -320313 7.1409e-06 -1.07399e+06 5.6596e-08 -1.80663e+07)
(-5.78737e+07 -320315 9.81671e-06 -1.05086e+06 1.29048e-06 -1.76774e+07)
(-5.66003e+07 -320318 7.6215e-06 -1.02774e+06 2.53789e-06 -1.72884e+07)
(-5.53269e+07 -320323 -2.13315e-07 -1.00462e+06 -3.16631e-06 -1.68995e+07)
(-5.40536e+07 -320326 2.49646e-06 -981501 -1.27338e-06 -1.65105e+07)
(-5.27802e+07 -320327 7.92139e-06 -958377 7.07584e-07 -1.61216e+07)
(-5.15069e+07 -320330 5.14712e-06 -935254 -3.30999e-06 -1.57326e+07)
(-5.02336e+07 -320335 1.8985e-05 -912132 -5.6762e-07 -1.53437e+07)
(-4.89603e+07 -320342 8.28417e-06 -889016 4.68485e-08 -1.49548e+07)
(-4.7687e+07 -320347 1.97382e-05 -865899 2.21052e-06 -1.45659e+07)
(-4.64137e+07 -320351 5.79825e-06 -842781 2.16476e-06 -1.4177e+07)
(-4.51405e+07 -320353 -1.74041e-07 -819659 -3.60901e-06 -1.3788e+07)
(-4.38672e+07 -320355 2.34e-05 -796538 1.11934e-07 -1.33991e+07)
(-4.2594e+07 -320356 1.48155e-05 -773418 6.79281e-08 -1.30102e+07)
(-4.13209e+07 -320356 2.10643e-05 -750300 1.59301e-06 -1.26213e+07)
(-4.00477e+07 -320353 9.26434e-08 -727182 2.27802e-06 -1.22325e+07)
(-3.87746e+07 -320350 -1.49497e-07 -704064 -3.84011e-06 -1.18436e+07)
(-3.75016e+07 -320351 2.17299e-05 -680947 8.37295e-08 -1.14548e+07)
(-3.62286e+07 -320356 6.27352e-06 -657834 2.31106e-08 -1.10659e+07)
(-3.49555e+07 -320360 2.22308e-05 -634723 1.66282e-06 -1.06771e+07)
(-3.36825e+07 -320363 9.67304e-06 -611608 2.43208e-06 -1.02882e+07)
(-3.24095e+07 -320364 -1.24956e-07 -588490 -4.03615e-06 -9.8994e+06)
(-3.11365e+07 -320360 2.28365e-05 -565372 1.69798e-06 -9.51057e+06)
(-2.98636e+07 -320360 -6.20785e-21 -542256 -1.09673e-19 -9.12176e+06)
(-2.85907e+07 -320364 2.31569e-05 -519145 6.38342e-08 -8.73295e+06)
(-2.73178e+07 -320363 -8.15371e-21 -496037 -1.8539e-19 -8.34415e+06)
(-2.60449e+07 -320362 1.00688e-05 -472924 2.49215e-08 -7.95535e+06)
(-2.4772e+07 -320368 5.73057e-08 -449805 2.53507e-06 -7.56655e+06)
(-2.34992e+07 -320368 -3.62408e-08 -426697 -1.70068e-06 -7.17776e+06)
(-2.22264e+07 -320364 6.85557e-08 -403584 3.42152e-06 -6.78898e+06)
(-2.09535e+07 -320368 -6.87824e-06 -380472 -1.33665e-08 -6.4002e+06)
(-1.96807e+07 -320370 -6.07039e-08 -357363 -3.45845e-06 -6.01142e+06)
(-1.84079e+07 -320370 6.976e-06 -334249 1.74936e-06 -5.62265e+06)
(-1.71351e+07 -320368 6.9393e-06 -311141 -2.60724e-06 -5.23389e+06)
(-1.58623e+07 -320369 2.80565e-05 -288026 1.79319e-06 -4.8451e+06)
(-1.45897e+07 -320377 3.37506e-08 -264921 2.63914e-06 -4.45637e+06)
(-1.33166e+07 -320377 -4.10743e-08 -241799 -3.53115e-06 -4.06753e+06)
(-1.20444e+07 -320408 7.0818e-06 -218735 7.68318e-09 -3.67893e+06)
(-1.07702e+07 -320462 1.41955e-05 -195565 -8.74354e-07 -3.28973e+06)
(-9.49913e+06 -320595 1.07089e-05 -172849 3.5704e-06 -2.90159e+06)
(-8.21986e+06 -321010 -7.13539e-06 -149438 -5.24325e-09 -2.51079e+06)
(-6.94981e+06 -319497 3.53687e-06 -129765 -6.25542e-06 -2.12387e+06)
(-5.66718e+06 -319736 2.50812e-05 -108059 4.48929e-06 -1.73257e+06)
(-4.3913e+06 -304928 -7.16892e-06 -76157 -2.80685e-09 -1.34024e+06)
(-3.18316e+06 -296380 1.79344e-05 -64742.7 -1.78954e-06 -974370)
(-2.00709e+06 -306659 4.62938e-09 -50121.8 2.69383e-06 -617162)
(-730944 -459512 -3.59273e-06 192780 1.79691e-06 -161449)
(-7.09668e+07 -5.10602e+06 1.07928e-07 -3.56785e+06 7.59637e-08 -2.23604e+07)
(-7.0944e+07 -600274 1.9971e-07 692455 -2.13585e-07 -2.10754e+07)
(-7.00783e+07 -758994 2.80341e-07 869520 -2.42436e-07 -2.07626e+07)
(-6.86728e+07 -907873 1.07403e-07 996376 3.11362e-07 -2.03029e+07)
(-6.79217e+07 -857593 2.623e-06 942607 1.27207e-06 -2.00937e+07)
(-6.69112e+07 -908891 1.80348e-06 926301 -2.97014e-07 -1.97955e+07)
(-6.60489e+07 -896795 -1.51427e-21 909939 -5.05943e-21 -1.95417e+07)
(-6.51321e+07 -904726 -1.28445e-06 896276 -8.95596e-08 -1.92708e+07)
(-6.42409e+07 -902462 -5.81604e-22 883720 3.16642e-21 -1.90072e+07)
(-6.33395e+07 -903568 1.60585e-06 871293 8.70937e-08 -1.87405e+07)
(-6.2444e+07 -903242 -1.5088e-21 858831 -1.36863e-20 -1.84755e+07)
(-6.15429e+07 -903672 -8.63218e-06 846999 -3.80811e-07 -1.82088e+07)
(-6.06505e+07 -904136 2.15877e-21 834583 2.76847e-20 -1.79448e+07)
(-5.97418e+07 -908300 2.17497e-06 825079 -4.75278e-07 -1.7675e+07)
(-5.88631e+07 -908557 5.92496e-06 816681 2.024e-07 -1.74139e+07)
(-5.79391e+07 -955583 2.6517e-06 815126 1.97294e-06 -1.71372e+07)
(-5.70733e+07 -903204 7.88973e-06 843359 -1.09787e-06 -1.6869e+07)
(-5.63016e+07 -1.17168e+06 5.68325e-06 724606 1.55854e-06 -1.66731e+07)
(-5.46497e+07 -769849 -4.26525e-08 543934 -7.37037e-07 -1.62317e+07)
(-5.37061e+07 -589940 5.99366e-06 731648 -2.93838e-06 -1.58923e+07)
(-5.33544e+07 -848831 8.0718e-06 783429 9.88687e-07 -1.57713e+07)
(-5.23598e+07 -842066 0 736470 0 -1.5487e+07)
(-5.15568e+07 -885937 -3.51407e-06 717511 -9.41325e-07 -1.52518e+07)
(-5.06327e+07 -896441 5.48141e-06 700520 1.90918e-06 -1.49797e+07)
(-4.97535e+07 -900574 3.76595e-06 685134 1.00218e-06 -1.47205e+07)
(-4.88495e+07 -902599 3.73582e-06 672543 -2.82663e-06 -1.44531e+07)
(-4.79558e+07 -902818 1.98573e-06 659586 3.29702e-08 -1.41889e+07)
(-4.70568e+07 -903026 -6.09867e-06 647329 9.27525e-07 -1.39228e+07)
(-4.61602e+07 -902989 6.31035e-06 634872 9.5207e-08 -1.36576e+07)
(-4.52625e+07 -902994 -4.35664e-06 622567 -1.14456e-06 -1.3392e+07)
(-4.43653e+07 -902976 -4.43336e-06 610199 -6.10034e-08 -1.31265e+07)
(-4.34679e+07 -902962 6.91677e-06 597871 3.50309e-06 -1.2861e+07)
(-4.25707e+07 -902939 -4.68412e-06 585528 -1.22325e-06 -1.25955e+07)
(-4.16734e+07 -902915 4.69106e-06 573194 -2.32481e-06 -1.23301e+07)
(-4.07762e+07 -902897 2.36592e-06 560852 -2.40565e-06 -1.20646e+07)
(-3.98789e+07 -902890 7.46315e-20 548507 1.42926e-18 -1.17991e+07)
(-3.89817e+07 -902889 1.28605e-05 536162 9.00104e-06 -1.15337e+07)
(-3.80846e+07 -902884 -1.29179e-05 523823 -1.42174e-06 -1.12682e+07)
(-3.71874e+07 -902872 7.81597e-06 511487 -2.55201e-06 -1.10028e+07)
(-3.62903e+07 -902860 2.83694e-08 499152 1.33733e-06 -1.07373e+07)
(-3.53931e+07 -902856 -5.43097e-06 486812 -4.86664e-08 -1.04719e+07)
(-3.4496e+07 -902862 -8.27759e-06 474466 -7.11493e-08 -1.02065e+07)
(-3.35989e+07 -902870 -1.9665e-05 462121 -2.96749e-06 -9.94103e+06)
(-3.27018e+07 -902871 -5.58424e-06 449784 5.64955e-06 -9.67559e+06)
(-3.18047e+07 -902863 -5.79204e-06 437450 -1.48753e-06 -9.41016e+06)
(-3.09076e+07 -902851 -8.88923e-06 425115 -7.38079e-06 -9.14474e+06)
(-3.00105e+07 -902836 2.34603e-08 412775 1.48246e-06 -8.87932e+06)
(-2.91135e+07 -902819 -1.49211e-05 400434 4.40276e-06 -8.61391e+06)
(-2.82165e+07 -902797 6.1557e-06 388099 6.11429e-06 -8.34851e+06)
(-2.73195e+07 -902773 -4.27133e-08 375764 -3.07248e-06 -8.08311e+06)
(-2.64225e+07 -902762 -9.34755e-06 363430 -3.16059e-06 -7.81773e+06)
(-2.55256e+07 -902763 -6.26913e-06 351090 -3.50983e-08 -7.55235e+06)
(-2.46287e+07 -902767 -1.58874e-05 338745 -4.83958e-06 -7.28697e+06)
(-2.37317e+07 -902768 7.42079e-08 326410 6.40038e-06 -7.02159e+06)
(-2.28348e+07 -902755 -6.43275e-06 314079 1.58326e-06 -6.75621e+06)
(-2.19379e+07 -902731 -9.79421e-06 301741 -3.30256e-06 -6.49085e+06)
(-2.1041e+07 -902718 -2.99545e-21 289406 -1.17269e-19 -6.22549e+06)
(-2.01442e+07 -902716 -9.91781e-06 277074 -4.15481e-08 -5.96013e+06)
(-1.92473e+07 -902711 -1.32621e-05 264730 6.61623e-06 -5.69477e+06)
(-1.83505e+07 -902706 -6.70817e-06 252393 -2.52324e-08 -5.42943e+06)
(-1.74537e+07 -902706 1.01294e-05 240071 3.59988e-08 -5.16407e+06)
(-1.65568e+07 -902687 -6.76961e-06 227726 3.37899e-06 -4.89873e+06)
(-1.566e+07 -902682 3.39341e-06 215387 -3.41114e-06 -4.6334e+06)
(-1.47632e+07 -902684 1.37477e-05 203063 4.05997e-08 -4.36805e+06)
(-1.38665e+07 -902676 -1.38193e-05 190720 -3.81334e-08 -4.10272e+06)
(-1.29697e+07 -902675 -4.05555e-08 178390 -6.95124e-06 -3.83738e+06)
(-1.20729e+07 -902665 -2.83136e-08 166048 -5.23692e-06 -3.57206e+06)
(-1.11761e+07 -902664 -1.75091e-05 153730 -3.84187e-08 -3.30672e+06)
(-1.02795e+07 -902678 7.07064e-06 141393 8.81224e-06 -3.04142e+06)
(-9.38246e+06 -902685 -7.04039e-06 129092 3.51864e-06 -2.77601e+06)
(-8.48616e+06 -902801 3.51217e-06 116767 -7.07959e-06 -2.51082e+06)
(-7.58819e+06 -903080 -1.4195e-05 104631 -2.08695e-08 -2.24507e+06)
(-6.69313e+06 -903664 1.04649e-08 92555.5 3.5617e-06 -1.98017e+06)
(-5.79014e+06 -906639 7.14003e-06 80581.5 3.57748e-06 -1.71287e+06)
(-4.89816e+06 -905240 -1.07242e-05 70310.8 -3.5863e-06 -1.44836e+06)
(-3.96573e+06 -922487 -2.50495e-05 51150.7 -3.60077e-06 -1.17437e+06)
(-3.05254e+06 -902324 7.16914e-06 26210.8 3.59035e-06 -907899)
(-2.19201e+06 -856498 -1.07572e-05 18073.4 -4.46479e-09 -652181)
(-1.19169e+06 -891098 -7.17229e-06 60951.1 7.18222e-06 -339223)
(-272026 -877774 -7.13637e-10 436581 -7.18724e-06 49366.7)
(-4.28486e+07 -3.81946e+06 8.61068e-08 -4.39112e+06 4.34355e-08 -1.41719e+07)
(-4.33933e+07 -718199 -6.68617e-08 -878311 -1.33914e-07 -1.32815e+07)
(-4.26125e+07 -1.36202e+06 -4.39651e-07 -614334 -5.48615e-08 -1.2968e+07)
(-4.17387e+07 -1.30919e+06 -2.14057e-06 -454332 -1.89681e-07 -1.26579e+07)
(-4.12373e+07 -1.23428e+06 1.11079e-06 -516412 -3.16996e-07 -1.25261e+07)
(-4.06115e+07 -1.2667e+06 -8.88579e-07 -513999 4.28797e-07 -1.23377e+07)
(-4.00865e+07 -1.24579e+06 7.44779e-07 -515877 1.71916e-06 -1.21807e+07)
(-3.95282e+07 -1.25357e+06 1.28181e-06 -510303 5.10759e-08 -1.20116e+07)
(-3.89878e+07 -1.24989e+06 -1.20527e-07 -504044 -1.45475e-06 -1.18476e+07)
(-3.84403e+07 -1.25121e+06 2.40482e-06 -497032 7.45015e-08 -1.16812e+07)
(-3.78975e+07 -1.25066e+06 2.81655e-06 -490200 2.73093e-06 -1.15163e+07)
(-3.73497e+07 -1.25084e+06 2.87344e-06 -482416 7.23903e-08 -1.13496e+07)
(-3.68127e+07 -1.25086e+06 -1.70705e-07 -475486 -3.11936e-06 -1.11864e+07)
(-3.62567e+07 -1.2512e+06 2.13499e-06 -464784 -1.62577e-06 -1.10165e+07)
(-3.57654e+07 -1.24698e+06 -1.23899e-06 -454070 -1.21236e-06 -1.08658e+07)
(-3.51574e+07 -1.25e+06 3.7974e-06 -437011 6.99367e-07 -1.06783e+07)
(-3.50985e+07 -1.18475e+06 5.42649e-08 -434118 1.33409e-06 -1.06598e+07)
(-3.38727e+07 -1.18493e+06 5.23235e-08 -488428 1.40472e-06 -1.03084e+07)
(-3.76111e+07 -1.94546e+06 4.94782e-06 64979.8 -1.69591e-06 -1.12638e+07)
(-3.27402e+07 -1.22111e+06 -7.5856e-08 -477178 -2.31417e-06 -9.96522e+06)
(-3.28722e+07 -1.17288e+06 1.55387e-06 -392902 -1.58863e-06 -9.97953e+06)
(-3.18183e+07 -1.2347e+06 -3.34107e-06 -377995 -4.12154e-08 -9.65888e+06)
(-3.13375e+07 -1.23417e+06 -6.96646e-06 -389872 -9.51596e-07 -9.51821e+06)
(-3.07326e+07 -1.24779e+06 -1.77567e-06 -389562 8.82616e-07 -9.33664e+06)
(-3.01999e+07 -1.248e+06 3.79445e-06 -388649 2.84066e-06 -9.17656e+06)
(-2.96464e+07 -1.25024e+06 1.90096e-06 -382306 -9.45558e-07 -9.0086e+06)
(-2.91046e+07 -1.25011e+06 -2.0294e-06 -376373 -2.00877e-06 -8.8443e+06)
(-2.85584e+07 -1.25036e+06 5.67279e-22 -369253 5.12084e-24 -8.67829e+06)
(-2.80145e+07 -1.25028e+06 4.33019e-08 -362388 2.10769e-06 -8.51306e+06)
(-2.74695e+07 -1.25029e+06 1.06149e-07 -355293 5.41216e-06 -8.34745e+06)
(-2.69251e+07 -1.25027e+06 -6.2427e-08 -348282 -3.33137e-06 -8.18202e+06)
(-2.63805e+07 -1.25025e+06 -4.07762e-08 -341218 -2.27585e-06 -8.0165e+06)
(-2.58359e+07 -1.25021e+06 1.99672e-08 -334176 1.16483e-06 -7.85103e+06)
(-2.52914e+07 -1.25017e+06 -5.86392e-08 -327123 -3.57351e-06 -7.68555e+06)
(-2.47468e+07 -1.25015e+06 -4.7802e-06 -320083 4.83583e-06 -7.52008e+06)
(-2.42023e+07 -1.25013e+06 -1.2394e-05 -313046 -7.81771e-08 -7.35461e+06)
(-2.36578e+07 -1.25013e+06 -9.33279e-21 -306010 -2.42173e-19 -7.18915e+06)
(-2.31133e+07 -1.25012e+06 5.15262e-06 -298965 2.98638e-08 -7.02369e+06)
(-2.25688e+07 -1.2501e+06 -6.97691e-08 -291916 -5.25788e-06 -6.85823e+06)
(-2.20244e+07 -1.25008e+06 5.33868e-06 -284869 2.84568e-08 -6.69277e+06)
(-2.14799e+07 -1.25007e+06 -1.08235e-05 -277830 2.66421e-06 -6.52732e+06)
(-2.09354e+07 -1.25007e+06 -5.43486e-06 -270797 6.88152e-06 -6.36187e+06)
(-2.0391e+07 -1.25008e+06 -1.11703e-05 -263760 2.75332e-06 -6.19642e+06)
(-1.98465e+07 -1.25008e+06 -5.71454e-06 -256712 -2.87312e-06 -6.03097e+06)
(-1.93021e+07 -1.25007e+06 -5.82421e-06 -249660 -5.80059e-06 -5.86552e+06)
(-1.87576e+07 -1.25005e+06 -1.46365e-05 -242614 -2.98763e-06 -5.70008e+06)
(-1.82132e+07 -1.25002e+06 -8.85062e-06 -235578 2.92984e-06 -5.53464e+06)
(-1.76688e+07 -1.24999e+06 -1.79794e-05 -228540 -6.84874e-08 -5.3692e+06)
(-1.71244e+07 -1.24996e+06 -6.09131e-06 -221496 -3.0601e-06 -5.20377e+06)
(-1.658e+07 -1.24993e+06 -6.13431e-06 -214450 -2.14224e-08 -5.03835e+06)
(-1.60357e+07 -1.24991e+06 -1.23783e-05 -207405 3.06488e-06 -4.87293e+06)
(-1.54913e+07 -1.24991e+06 -6.24256e-06 -200367 3.11879e-06 -4.70751e+06)
(-1.4947e+07 -1.24991e+06 -1.89877e-05 -193338 -5.79371e-08 -4.5421e+06)
(-1.44026e+07 -1.24991e+06 -1.59743e-05 -186293 -4.65227e-08 -4.37668e+06)
(-1.38583e+07 -1.24989e+06 -2.14207e-08 -179247 -3.22954e-06 -4.21127e+06)
(-1.3314e+07 -1.24985e+06 -6.50397e-06 -172212 -1.72025e-08 -4.04586e+06)
(-1.27697e+07 -1.24983e+06 -6.55773e-06 -165173 -1.64992e-08 -3.88046e+06)
(-1.22254e+07 -1.24982e+06 -6.57145e-06 -158123 6.60455e-06 -3.71505e+06)
(-1.16811e+07 -1.24982e+06 -6.66754e-06 -151090 -1.6825e-06 -3.54965e+06)
(-1.11368e+07 -1.24981e+06 -6.02494e-08 -144054 -1.17541e-05 -3.38426e+06)
(-1.05925e+07 -1.2498e+06 2.45593e-08 -137001 5.07107e-06 -3.21886e+06)
(-1.00482e+07 -1.24978e+06 -6.79287e-06 -129974 -1.29829e-08 -3.05347e+06)
(-9.50399e+06 -1.24977e+06 -6.84785e-06 -122938 -3.43441e-06 -2.88808e+06)
(-8.95974e+06 -1.24977e+06 -6.83659e-06 -115879 8.59132e-06 -2.72268e+06)
(-8.41548e+06 -1.24976e+06 1.22389e-21 -108856 -1.84333e-19 -2.5573e+06)
(-7.87121e+06 -1.24975e+06 -6.95276e-06 -101810 -3.48602e-06 -2.39191e+06)
(-7.327e+06 -1.24974e+06 -1.39325e-05 -94778.5 3.47257e-06 -2.22653e+06)
(-6.78272e+06 -1.24974e+06 -1.75025e-05 -87713 -2.19093e-08 -2.06113e+06)
(-6.23859e+06 -1.24975e+06 -2.10835e-05 -80676.1 -2.41821e-08 -1.89578e+06)
(-5.69415e+06 -1.24973e+06 -1.32022e-08 -73582.6 -5.29764e-06 -1.73032e+06)
(-5.15054e+06 -1.24986e+06 -7.06681e-06 -66516.2 3.53628e-06 -1.56512e+06)
(-4.60546e+06 -1.24989e+06 -1.41898e-05 -59081.5 -1.19041e-08 -1.39936e+06)
(-4.06535e+06 -1.25072e+06 -1.42318e-05 -51707.7 -3.57244e-06 -1.23512e+06)
(-3.51644e+06 -1.25091e+06 -7.1202e-06 -43607 5.35005e-06 -1.06802e+06)
(-3.00686e+06 -1.25479e+06 7.14634e-06 -37913 3.58031e-06 -913430)
(-2.41231e+06 -1.25296e+06 -1.43057e-05 -38017.5 -6.19133e-09 -735099)
(-2.16579e+06 -1.21584e+06 -1.43619e-06 -12674.2 -4.30352e-06 -653539)
(-1.29029e+06 -1.26407e+06 1.97974e-09 -38705.4 3.58977e-06 -398700)
(-704953 -1.29387e+06 -1.43454e-05 5979.41 -1.91555e-09 -209692)
(-104745 -1.15007e+06 7.17451e-06 323282 2.28902e-09 65561.2)
(-1.40163e+07 -2.5345e+06 -2.02394e-07 -1.12124e+06 -1.33045e-07 -4.54128e+06)
(-1.43113e+07 -772590 -2.81051e-07 150364 -1.52318e-07 -4.24827e+06)
(-1.39848e+07 -1.6649e+06 2.6243e-07 345692 4.61633e-07 -4.09172e+06)
(-1.37021e+07 -1.53216e+06 1.49236e-06 390701 -4.18943e-07 -3.99343e+06)
(-1.35164e+07 -1.43777e+06 -2.96088e-22 373741 9.43877e-22 -3.94281e+06)
(-1.33095e+07 -1.45891e+06 3.60535e-21 366345 5.36937e-21 -3.88295e+06)
(-1.31346e+07 -1.4321e+06 1.63326e-06 359681 -1.10117e-06 -3.83248e+06)
(-1.29512e+07 -1.43956e+06 1.0183e-08 354190 3.23299e-07 -3.77909e+06)
(-1.2774e+07 -1.43499e+06 1.43221e-06 349157 -3.45646e-07 -3.72744e+06)
(-1.25941e+07 -1.43638e+06 1.57212e-06 344364 -1.19309e-06 -3.67491e+06)
(-1.2417e+07 -1.43571e+06 2.55042e-20 339316 7.98703e-20 -3.6233e+06)
(-1.22358e+07 -1.43557e+06 7.68582e-06 335168 1.51461e-06 -3.57018e+06)
(-1.20627e+07 -1.43567e+06 9.48453e-09 330105 5.19956e-07 -3.51977e+06)
(-1.18723e+07 -1.43194e+06 5.54421e-06 327653 4.20892e-08 -3.46341e+06)
(-1.17176e+07 -1.43152e+06 -3.55826e-06 324867 -6.19617e-07 -3.41783e+06)
(-1.14676e+07 -1.38845e+06 1.27422e-06 316805 1.27048e-06 -3.34524e+06)
(-1.13831e+07 -1.40133e+06 1.33705e-06 327891 6.75249e-07 -3.31657e+06)
(-1.06604e+07 -1.10014e+06 2.78413e-06 267828 -1.39029e-06 -3.11777e+06)
(-1.04687e+07 -1.33646e+06 -8.17793e-09 126526 -7.37221e-07 -3.10264e+06)
(-1.10019e+07 -1.74018e+06 -8.63539e-09 255841 -7.7121e-07 -3.22381e+06)
(-1.07009e+07 -1.43373e+06 -1.57835e-06 345169 2.40736e-06 -3.10673e+06)
(-1.04432e+07 -1.48167e+06 4.11167e-08 322327 4.19058e-06 -3.03625e+06)
(-1.02756e+07 -1.43227e+06 -1.75099e-06 297149 -1.74849e-06 -2.99353e+06)
(-1.00685e+07 -1.43956e+06 -3.16781e-08 284495 -3.61021e-06 -2.93519e+06)
(-9.89691e+06 -1.43439e+06 -7.78233e-09 272877 -9.33942e-07 -2.88721e+06)
(-9.7122e+06 -1.43584e+06 3.84635e-06 266937 1.37691e-08 -2.83358e+06)
(-9.53607e+06 -1.43518e+06 7.49787e-09 260764 9.95047e-07 -2.78259e+06)
(-9.35632e+06 -1.43538e+06 0 255914 0 -2.73012e+06)
(-9.17852e+06 -1.43526e+06 -2.10144e-06 250828 -6.50399e-09 -2.67831e+06)
(-8.9998e+06 -1.43527e+06 -7.07618e-09 246003 -1.08249e-06 -2.62614e+06)
(-8.82153e+06 -1.43524e+06 8.85867e-06 241087 2.50042e-08 -2.57413e+06)
(-8.64303e+06 -1.43521e+06 -2.24921e-06 236231 3.40783e-06 -2.52204e+06)
(-8.46465e+06 -1.43517e+06 -4.65347e-06 231351 -1.17689e-06 -2.46999e+06)
(-8.28622e+06 -1.43513e+06 -3.86734e-21 226486 -8.97291e-20 -2.41792e+06)
(-8.10783e+06 -1.4351e+06 4.87444e-06 221609 3.66254e-06 -2.36587e+06)
(-7.92942e+06 -1.43508e+06 9.89993e-06 216728 -2.462e-06 -2.31381e+06)
(-7.75102e+06 -1.43507e+06 -3.05672e-21 211846 -1.68789e-19 -2.26175e+06)
(-7.57262e+06 -1.43505e+06 -5.95404e-09 206971 -1.29099e-06 -2.2097e+06)
(-7.39423e+06 -1.43503e+06 -2.63432e-06 202100 -2.6343e-06 -2.15764e+06)
(-7.21585e+06 -1.43501e+06 2.83677e-08 197230 6.68754e-06 -2.10559e+06)
(-7.03746e+06 -1.435e+06 -2.69134e-06 192354 5.43471e-06 -2.05353e+06)
(-6.85908e+06 -1.435e+06 -4.30139e-21 187470 -9.81881e-20 -2.00148e+06)
(-6.68069e+06 -1.435e+06 5.58903e-06 182588 -2.79667e-06 -1.94943e+06)
(-6.50231e+06 -1.435e+06 1.0225e-08 177717 2.84761e-06 -1.89738e+06)
(-6.32394e+06 -1.43498e+06 -5.75321e-06 172850 2.87899e-06 -1.84533e+06)
(-6.14556e+06 -1.43496e+06 -5.86092e-06 167977 -5.86305e-06 -1.79328e+06)
(-5.96719e+06 -1.43493e+06 9.38352e-09 163096 2.96527e-06 -1.74123e+06)
(-5.78882e+06 -1.4349e+06 -5.98264e-06 158215 2.99404e-06 -1.68918e+06)
(-5.61046e+06 -1.43486e+06 -2.31873e-20 153343 -5.66687e-19 -1.63714e+06)
(-5.43211e+06 -1.43482e+06 3.06646e-06 148476 3.84929e-09 -1.58509e+06)
(-5.25377e+06 -1.4348e+06 -8.26166e-09 143608 -3.10644e-06 -1.53305e+06)
(-5.07542e+06 -1.43479e+06 7.98121e-09 138731 3.13893e-06 -1.48101e+06)
(-4.89707e+06 -1.43479e+06 -6.32785e-06 133844 -6.94028e-09 -1.42897e+06)
(-4.71873e+06 -1.43479e+06 -7.42029e-09 128971 -3.20054e-06 -1.37693e+06)
(-4.54039e+06 -1.43476e+06 -6.45372e-06 124099 -3.2361e-06 -1.32489e+06)
(-4.36205e+06 -1.43473e+06 1.01521e-20 119219 -1.15726e-19 -1.27285e+06)
(-4.18372e+06 -1.4347e+06 3.55352e-21 114346 2.97592e-20 -1.22081e+06)
(-4.0054e+06 -1.43469e+06 -6.60785e-06 109485 -5.67662e-09 -1.16878e+06)
(-3.82707e+06 -1.43468e+06 6.01814e-09 104604 3.33493e-06 -1.11674e+06)
(-3.64874e+06 -1.43467e+06 -3.35781e-06 99721.6 -3.36103e-06 -1.06471e+06)
(-3.47043e+06 -1.43466e+06 5.45732e-09 94857.1 3.38084e-06 -1.01267e+06)
(-3.2921e+06 -1.43463e+06 1.03538e-08 89975.3 6.80422e-06 -960638)
(-3.11379e+06 -1.43463e+06 -3.42078e-06 85103.9 -3.42446e-06 -908606)
(-2.93548e+06 -1.43462e+06 -4.6161e-09 80244 -3.44128e-06 -856570)
(-2.75717e+06 -1.43461e+06 6.90564e-06 75348.1 3.90751e-09 -804545)
(-2.57883e+06 -1.4346e+06 -6.9392e-06 70485.7 -3.65481e-09 -752505)
(-2.40055e+06 -1.43459e+06 -1.11439e-20 65607.4 -5.43905e-24 -700484)
(-2.22221e+06 -1.43458e+06 -6.99611e-06 60762 3.50302e-06 -648435)
(-2.04399e+06 -1.43459e+06 1.60917e-20 55884.6 1.21978e-18 -596433)
(-1.8655e+06 -1.43454e+06 7.0481e-06 51074.3 -3.52925e-06 -544327)
(-1.68763e+06 -1.43462e+06 9.71429e-20 46263 2.20284e-18 -492410)
(-1.50877e+06 -1.43431e+06 2.37299e-09 41851.6 3.55312e-06 -440077)
(-1.33238e+06 -1.4348e+06 -1.0667e-05 37453.1 -2.83726e-09 -388477)
(-1.1527e+06 -1.43177e+06 -3.62844e-09 33874.8 -7.13971e-06 -335648)
(-979247 -1.4356e+06 -7.14035e-06 30270.3 -1.39872e-09 -284693)
(-804456 -1.41629e+06 -4.0261e-21 19642.3 -1.5908e-19 -235444)
(-572197 -1.45186e+06 -8.93327e-10 5937.04 -3.58657e-06 -169878)
(-388946 -1.48779e+06 -7.1653e-06 5492.23 7.17919e-06 -115036)
(-210133 -1.50013e+06 1.24323e-21 26553.8 -3.19043e-19 -55073.9)
(-20350.8 -1.27139e+06 -3.58626e-06 136913 -7.18401e-06 34968.6)
(1.4018e+07 -2.53454e+06 -1.43282e-07 1.12157e+06 1.69193e-07 4.54187e+06)
(1.4313e+07 -772596 -4.392e-07 -150273 -4.25674e-07 4.24881e+06)
(1.39865e+07 -1.6649e+06 5.13886e-07 -345684 -8.10323e-07 4.09223e+06)
(1.37038e+07 -1.53215e+06 -1.07801e-08 -390711 1.55872e-07 3.99393e+06)
(1.35181e+07 -1.43777e+06 -4.22652e-07 -373763 6.05305e-07 3.94329e+06)
(1.33112e+07 -1.45891e+06 9.60395e-07 -366347 -2.59594e-07 3.88346e+06)
(1.31362e+07 -1.4321e+06 -6.20162e-07 -359713 1.70296e-06 3.83294e+06)
(1.2953e+07 -1.43957e+06 -2.57101e-06 -354146 3.60015e-07 3.77966e+06)
(1.27752e+07 -1.435e+06 -1.38199e-06 -349240 -2.16439e-06 3.72779e+06)
(1.25965e+07 -1.43638e+06 -8.20719e-07 -344118 8.16216e-07 3.67572e+06)
(1.2417e+07 -1.43573e+06 -2.63873e-06 -339486 2.63971e-08 3.62324e+06)
(1.22407e+07 -1.43555e+06 -9.57119e-07 -333924 8.67294e-09 3.57202e+06)
(1.20568e+07 -1.43591e+06 2.84398e-08 -330064 -1.55987e-06 3.51801e+06)
(1.18885e+07 -1.43309e+06 1.10884e-06 -323209 -8.42167e-09 3.46957e+06)
(1.16875e+07 -1.43686e+06 -2.38439e-06 -325805 1.20597e-06 3.40849e+06)
(1.15611e+07 -1.41789e+06 2.72752e-08 -321170 -1.8936e-06 3.37197e+06)
(1.13267e+07 -1.46192e+06 6.63059e-06 -385044 6.26481e-07 3.28251e+06)
(1.13538e+07 -1.38234e+06 -2.68281e-08 -357212 2.10778e-06 3.29899e+06)
(1.13802e+07 -1.62536e+06 1.44932e-06 -117930 1.46654e-06 3.37867e+06)
(1.08161e+07 -1.51547e+06 1.69998e-08 -282401 -1.54253e-06 3.16012e+06)
(1.05682e+07 -1.46943e+06 -4.79392e-06 -333133 -1.58737e-06 3.07052e+06)
(1.04294e+07 -1.46741e+06 3.33936e-06 -261521 -1.47077e-08 3.05035e+06)
(1.02293e+07 -1.43837e+06 6.94727e-06 -275099 -8.99564e-07 2.98626e+06)
(1.00739e+07 -1.44086e+06 1.49209e-21 -267895 1.20181e-20 2.94179e+06)
(9.88931e+06 -1.43535e+06 -7.77511e-09 -268942 9.33944e-07 2.88611e+06)
(9.71631e+06 -1.43611e+06 -5.76189e-06 -264219 -9.44128e-07 2.83563e+06)
(9.53588e+06 -1.43524e+06 -2.11295e-21 -260560 -1.69554e-22 2.7826e+06)
(9.3586e+06 -1.43539e+06 -7.35822e-09 -255577 1.02476e-06 2.73091e+06)
(9.17958e+06 -1.43525e+06 2.087e-06 -250905 2.10131e-06 2.6786e+06)
(9.0014e+06 -1.43527e+06 1.33641e-20 -245968 6.72606e-20 2.62663e+06)
(8.82281e+06 -1.43523e+06 -6.63013e-06 -241131 -2.20229e-06 2.5745e+06)
(8.64443e+06 -1.43521e+06 2.24241e-06 -236234 4.54582e-06 2.52246e+06)
(8.46595e+06 -1.43517e+06 -4.64682e-06 -231361 1.19981e-08 2.47038e+06)
(8.28753e+06 -1.43513e+06 -7.08267e-06 -226474 -8.32102e-06 2.41832e+06)
(8.10909e+06 -1.4351e+06 4.85532e-06 -221598 -1.14923e-08 2.36625e+06)
(7.93068e+06 -1.43508e+06 -1.24711e-08 -216726 2.48447e-06 2.31419e+06)
(7.75226e+06 -1.43507e+06 2.50304e-06 -211857 5.06209e-06 2.26212e+06)
(7.57384e+06 -1.43506e+06 -5.15719e-06 -206980 1.30173e-06 2.21006e+06)
(7.39542e+06 -1.43503e+06 -2.59943e-06 -202099 -5.25289e-06 2.158e+06)
(7.21701e+06 -1.43501e+06 2.66864e-06 -197218 -5.11403e-09 2.10594e+06)
(7.0386e+06 -1.435e+06 1.08428e-05 -192343 2.6999e-06 2.05388e+06)
(6.8602e+06 -1.435e+06 5.50358e-06 -187475 2.75383e-06 2.00182e+06)
(6.68179e+06 -1.43501e+06 1.11886e-05 -182605 2.7872e-06 1.94976e+06)
(6.50339e+06 -1.435e+06 8.51348e-06 -177725 2.83378e-06 1.8977e+06)
(6.32498e+06 -1.43499e+06 5.7731e-06 -172843 -2.89691e-06 1.84564e+06)
(6.14658e+06 -1.43496e+06 5.86093e-06 -167967 -5.86305e-06 1.79358e+06)
(5.96819e+06 -1.43494e+06 5.90841e-06 -163099 2.95681e-06 1.74153e+06)
(5.7898e+06 -1.4349e+06 5.99174e-06 -158230 -8.20544e-09 1.68947e+06)
(5.61141e+06 -1.43486e+06 1.2149e-05 -153350 -7.61115e-06 1.63742e+06)
(5.43302e+06 -1.43482e+06 1.83987e-05 -148467 -2.30993e-08 1.58537e+06)
(5.25464e+06 -1.4348e+06 6.18774e-06 -143585 4.65221e-06 1.53332e+06)
(5.07627e+06 -1.4348e+06 6.24915e-06 -138712 6.27066e-06 1.48127e+06)
(4.8979e+06 -1.4348e+06 6.32785e-06 -133851 -6.94141e-09 1.42921e+06)
(4.71953e+06 -1.43479e+06 1.59708e-05 -128976 -1.67215e-08 1.37717e+06)
(4.54116e+06 -1.43477e+06 7.14104e-09 -124101 -3.22966e-06 1.32512e+06)
(4.3628e+06 -1.43473e+06 6.50944e-06 -119233 -3.26385e-06 1.27307e+06)
(4.18443e+06 -1.4347e+06 6.54976e-06 -114355 3.27861e-06 1.22102e+06)
(4.00606e+06 -1.4347e+06 -1.25992e-08 -109464 6.6206e-06 1.16898e+06)
(3.82771e+06 -1.43469e+06 1.66488e-05 -104600 -3.3485e-06 1.11693e+06)
(3.64937e+06 -1.43468e+06 2.00854e-08 -99738.5 -1.17546e-05 1.06489e+06)
(3.471e+06 -1.43466e+06 -5.45821e-09 -94854.5 3.38084e-06 1.01285e+06)
(3.29265e+06 -1.43463e+06 6.78889e-06 -89980.7 1.69639e-06 960802)
(3.11431e+06 -1.43463e+06 2.05002e-05 -85107.7 -3.4355e-06 908760)
(2.93596e+06 -1.43463e+06 1.717e-05 -80224.1 3.43088e-06 856722)
(2.75761e+06 -1.43461e+06 -4.3364e-09 -75374.7 3.45919e-06 804672)
(2.57928e+06 -1.43461e+06 1.38784e-05 -70483.1 -7.3108e-09 752640)
(2.40092e+06 -1.4346e+06 6.96675e-06 -65612.8 3.48823e-06 700591)
(2.22261e+06 -1.43459e+06 3.88556e-21 -60717.3 -1.74853e-24 648569)
(2.04418e+06 -1.43459e+06 2.10858e-05 -55855.5 -7.04788e-06 596498)
(1.86601e+06 -1.43452e+06 4.40142e-09 -50916.3 -5.29783e-06 544528)
(1.68727e+06 -1.43457e+06 1.41415e-05 -46040.4 7.08135e-06 492369)
(1.50941e+06 -1.43424e+06 7.08994e-06 -40754.5 5.32754e-06 440595)
(1.32931e+06 -1.43445e+06 2.13362e-05 -36081 -3.5677e-06 387970)
(1.1527e+06 -1.43289e+06 1.78157e-05 -29852.3 3.56579e-06 336854)
(970244 -1.43367e+06 -7.14189e-06 -29440 3.57793e-06 282241)
(796594 -1.43334e+06 1.25111e-09 -19440 -3.58213e-06 233146)
(636569 -1.43447e+06 7.16141e-06 -5070.91 -3.58744e-06 189450)
(434006 -1.46719e+06 -6.82571e-10 -11995.3 3.58987e-06 126603)
(204166 -1.49627e+06 1.43418e-05 -30428.9 -7.3319e-10 52121)
(28621.6 -1.26982e+06 6.76352e-11 -136287 -3.59178e-06 -32299.6)
(4.28502e+07 -3.81956e+06 -1.91032e-07 4.39141e+06 1.80047e-07 1.41725e+07)
(4.3395e+07 -718214 2.00593e-07 878380 -4.01742e-07 1.3282e+07)
(4.26141e+07 -1.36201e+06 -1.09913e-06 614339 1.37159e-07 1.29685e+07)
(4.17403e+07 -1.30919e+06 -9.17389e-07 454319 8.12955e-08 1.26584e+07)
(4.12389e+07 -1.23427e+06 6.37542e-08 516392 -3.96997e-07 1.25266e+07)
(4.06132e+07 -1.2667e+06 -9.51359e-07 513998 5.25098e-08 1.23382e+07)
(4.00881e+07 -1.24579e+06 -6.20855e-07 515848 5.90323e-07 1.21812e+07)
(3.95301e+07 -1.25356e+06 1.2207e-06 510344 5.95392e-07 1.20121e+07)
(3.89891e+07 -1.2499e+06 -1.32311e-06 503967 -1.40437e-06 1.18479e+07)
(3.84427e+07 -1.25117e+06 -1.54379e-06 497252 -7.57493e-07 1.1682e+07)
(3.78974e+07 -1.25065e+06 2.64082e-06 490033 -7.34493e-08 1.15162e+07)
(3.73545e+07 -1.25037e+06 0 483602 0 1.13514e+07)
(3.68058e+07 -1.25082e+06 3.13114e-06 475757 -5.91228e-07 1.11845e+07)
(3.62699e+07 -1.24768e+06 -2.27513e-06 470560 1.16193e-06 1.10221e+07)