/*--------------------------------*- C++ -*----------------------------------*\
| =========                 |                                                 |
| \\      /  F ield         | foam-extend: Open Source CFD                    |
|  \\    /   O peration     | Version:     4.0                                |
|   \\  /    A nd           | Web:         http://www.foam-extend.org         |
|    \\/     M anipulation  |                                                 |
\*---------------------------------------------------------------------------*/
FoamFile
{
    version     2.0;
    format      ascii;
    class       volScalarField;
    location    "1";
    object      sigmaEq;
}
// * * * * * * * * * * * * * * * * * * * * * * * * * * * * * * * * * * * * * //

dimensions      [1 -1 -2 0 0 0 0];

internalField   nonuniform List<scalar> 
640
(
8.81267e+07
8.59438e+07
8.67285e+07
8.49927e+07
8.42495e+07
8.30184e+07
8.19609e+07
8.08273e+07
7.97216e+07
7.86038e+07
7.7492e+07
7.63747e+07
7.52651e+07
7.41392e+07
7.30338e+07
7.18788e+07
7.06979e+07
6.96091e+07
6.81886e+07
6.70139e+07
6.61034e+07
6.49933e+07
6.39689e+07
6.2838e+07
6.17431e+07
6.06237e+07
5.95135e+07
5.83984e+07
5.72855e+07
5.61717e+07
5.50583e+07
5.39447e+07
5.28313e+07
5.17179e+07
5.06046e+07
4.94912e+07
4.83779e+07
4.72646e+07
4.61513e+07
4.50381e+07
4.39249e+07
4.28117e+07
4.16985e+07
4.05853e+07
3.94722e+07
3.8359e+07
3.72459e+07
3.61329e+07
3.50199e+07
3.39069e+07
3.2794e+07
3.16811e+07
3.05682e+07
2.94553e+07
2.83425e+07
2.72297e+07
2.61169e+07
2.50042e+07
2.38916e+07
2.2779e+07
2.16664e+07
2.05538e+07
1.94414e+07
1.8329e+07
1.72166e+07
1.61044e+07
1.49923e+07
1.38802e+07
1.27684e+07
1.16565e+07
1.05455e+07
9.43319e+06
8.32376e+06
7.20831e+06
6.09883e+06
4.98184e+06
3.87848e+06
2.82469e+06
1.8231e+06
1.13357e+06
6.08883e+07
6.36186e+07
6.29962e+07
6.18548e+07
6.11422e+07
6.02335e+07
5.94538e+07
5.86287e+07
5.78267e+07
5.70159e+07
5.62102e+07
5.54002e+07
5.45975e+07
5.37827e+07
5.29953e+07
5.21758e+07
5.14264e+07
5.06623e+07
4.90268e+07
4.83311e+07
4.80717e+07
4.71501e+07
4.6424e+07
4.55902e+07
4.47971e+07
4.39842e+07
4.318e+07
4.23717e+07
4.15654e+07
4.07582e+07
3.99515e+07
3.91447e+07
3.83379e+07
3.75312e+07
3.67246e+07
3.5918e+07
3.51115e+07
3.4305e+07
3.34986e+07
3.26922e+07
3.18859e+07
3.10796e+07
3.02734e+07
2.94673e+07
2.86612e+07
2.78553e+07
2.70494e+07
2.62436e+07
2.54379e+07
2.46324e+07
2.3827e+07
2.30217e+07
2.22165e+07
2.14115e+07
2.06067e+07
1.9802e+07
1.89976e+07
1.81935e+07
1.73896e+07
1.6586e+07
1.57828e+07
1.498e+07
1.41777e+07
1.3376e+07
1.25749e+07
1.17747e+07
1.09754e+07
1.01773e+07
9.3809e+06
8.58613e+06
7.79454e+06
7.0051e+06
6.22307e+06
5.44233e+06
4.68028e+06
3.90735e+06
3.14928e+06
2.46032e+06
1.90004e+06
1.63986e+06
3.52457e+07
3.78892e+07
3.74592e+07
3.68055e+07
3.63036e+07
3.57537e+07
3.52842e+07
3.47942e+07
3.43194e+07
3.38394e+07
3.33634e+07
3.28838e+07
3.2413e+07
3.19286e+07
3.15009e+07
3.09757e+07
3.09181e+07
2.9788e+07
3.36505e+07
2.87973e+07
2.89753e+07
2.80607e+07
2.76252e+07
2.70913e+07
2.66201e+07
2.61352e+07
2.56601e+07
2.5182e+07
2.47058e+07
2.4229e+07
2.37527e+07
2.32762e+07
2.28e+07
2.23238e+07
2.18477e+07
2.13718e+07
2.08959e+07
2.04202e+07
1.99446e+07
1.94692e+07
1.89939e+07
1.85188e+07
1.80439e+07
1.75691e+07
1.70946e+07
1.66203e+07
1.61462e+07
1.56723e+07
1.51988e+07
1.47256e+07
1.42528e+07
1.37803e+07
1.33082e+07
1.28366e+07
1.23655e+07
1.1895e+07
1.14251e+07
1.0956e+07
1.04877e+07
1.00203e+07
9.55403e+06
9.08894e+06
8.62531e+06
8.16338e+06
7.7034e+06
7.24577e+06
6.791e+06
6.33964e+06
5.89262e+06
5.45062e+06
5.01604e+06
4.58903e+06
4.17766e+06
3.77448e+06
3.4213e+06
3.0295e+06
2.84633e+06
2.45746e+06
2.32828e+06
2.02664e+06
1.23754e+07
1.29099e+07
1.30299e+07
1.27705e+07
1.25624e+07
1.23838e+07
1.22169e+07
1.20556e+07
1.1896e+07
1.17364e+07
1.15785e+07
1.14179e+07
1.12639e+07
1.10956e+07
1.09593e+07
1.07197e+07
1.06602e+07
9.87525e+06
9.68661e+06
1.04286e+07
1.0098e+07
9.87954e+06
9.69403e+06
9.50966e+06
9.35124e+06
9.18917e+06
9.03349e+06
8.87637e+06
8.72081e+06
8.56497e+06
8.40969e+06
8.25454e+06
8.09975e+06
7.94524e+06
7.79107e+06
7.63725e+06
7.4838e+06
7.33074e+06
7.17811e+06
7.02591e+06
6.8742e+06
6.72298e+06
6.5723e+06
6.42221e+06
6.27273e+06
6.1239e+06
5.97578e+06
5.82841e+06
5.68188e+06
5.53625e+06
5.39159e+06
5.24798e+06
5.10549e+06
4.96424e+06
4.8243e+06
4.6858e+06
4.54891e+06
4.41377e+06
4.28051e+06
4.14933e+06
4.02045e+06
3.89403e+06
3.77042e+06
3.64986e+06
3.53261e+06
3.41908e+06
3.30964e+06
3.20467e+06
3.10473e+06
3.01003e+06
2.92181e+06
2.83921e+06
2.76593e+06
2.69369e+06
2.64258e+06
2.55961e+06
2.56655e+06
2.6006e+06
2.60662e+06
2.20644e+06
1.23765e+07
1.29113e+07
1.30314e+07
1.2772e+07
1.25638e+07
1.23853e+07
1.22183e+07
1.20572e+07
1.18972e+07
1.17384e+07
1.15786e+07
1.14212e+07
1.12588e+07
1.11065e+07
1.0936e+07
1.08155e+07
1.06806e+07
1.06504e+07
1.05902e+07
1.01839e+07
9.98984e+06
9.8141e+06
9.63985e+06
9.50202e+06
9.34213e+06
9.19071e+06
9.0332e+06
8.87806e+06
8.72176e+06
8.56631e+06
8.41081e+06
8.25573e+06
8.10086e+06
7.94634e+06
7.79213e+06
7.63831e+06
7.48485e+06
7.33177e+06
7.1791e+06
7.02687e+06
6.87513e+06
6.72391e+06
6.57323e+06
6.4231e+06
6.27358e+06
6.12472e+06
5.97659e+06
5.82921e+06
5.68264e+06
5.53696e+06
5.39226e+06
5.24863e+06
5.10614e+06
4.96485e+06
4.82489e+06
4.68637e+06
4.54944e+06
4.41424e+06
4.28098e+06
4.14979e+06
4.02085e+06
3.89442e+06
3.77077e+06
3.65017e+06
3.53291e+06
3.41936e+06
3.30986e+06
3.20488e+06
3.10482e+06
3.0102e+06
2.92147e+06
2.83896e+06
2.76371e+06
2.69422e+06
2.63651e+06
2.58593e+06
2.54909e+06
2.57182e+06
2.5998e+06
2.20413e+06
3.5247e+07
3.78907e+07
3.74607e+07
3.6807e+07
3.6305e+07
3.57552e+07
3.52856e+07
3.47958e+07
3.43206e+07
3.38414e+07
3.33635e+07
3.2887e+07
3.24067e+07
3.19352e+07
3.14509e+07
3.10016e+07
3.05307e+07
3.01067e+07
2.96507e+07
2.90602e+07
2.8548e+07
2.80433e+07
2.75611e+07
2.70903e+07
2.66117e+07
2.61376e+07
2.56598e+07
2.51838e+07
2.47068e+07
2.42304e+07
2.37538e+07
2.32775e+07
2.28011e+07
2.23249e+07
2.18488e+07
2.13729e+07
2.0897e+07
2.04213e+07
1.99457e+07
1.94702e+07
1.89949e+07
1.85198e+07
1.80449e+07
1.75701e+07
1.70955e+07
1.66211e+07
1.6147e+07
1.56732e+07
1.51996e+07
1.47264e+07
1.42535e+07
1.3781e+07
1.3309e+07
1.28373e+07
1.23662e+07
1.18957e+07
1.14258e+07
1.09566e+07
1.04883e+07
1.00209e+07
9.55453e+06
9.08941e+06
8.62577e+06
8.1638e+06
7.70379e+06
7.24613e+06
6.79131e+06
6.33996e+06
5.89275e+06
5.4509e+06
5.0155e+06
4.58859e+06
4.17257e+06
3.77029e+06
3.39057e+06
3.03797e+06
2.71922e+06
2.46103e+06
2.31154e+06
2.02919e+06
6.08897e+07
6.362e+07
6.29977e+07
6.18563e+07
6.11437e+07
6.0235e+07
5.94552e+07
5.86303e+07
5.78278e+07
5.70179e+07
5.62104e+07
5.54039e+07
5.45941e+07
5.37916e+07
5.29795e+07
5.2186e+07
5.13889e+07
5.05668e+07
4.96992e+07
4.88813e+07
4.80791e+07
4.72277e+07
4.64137e+07
4.56039e+07
4.47939e+07
4.3988e+07
4.318e+07
4.23736e+07
4.15663e+07
4.07596e+07
3.99527e+07
3.91459e+07
3.83391e+07
3.75324e+07
3.67257e+07
3.59191e+07
3.51126e+07
3.43061e+07
3.34996e+07
3.26932e+07
3.18869e+07
3.10806e+07
3.02744e+07
2.94683e+07
2.86622e+07
2.78562e+07
2.70503e+07
2.62444e+07
2.54387e+07
2.46332e+07
2.38277e+07
2.30224e+07
2.22172e+07
2.14122e+07
2.06073e+07
1.98027e+07
1.89983e+07
1.81941e+07
1.73902e+07
1.65866e+07
1.57833e+07
1.49805e+07
1.41782e+07
1.33764e+07
1.25753e+07
1.1775e+07
1.09757e+07
1.01777e+07
9.38109e+06
8.58654e+06
7.79436e+06
7.00582e+06
6.22168e+06
5.44427e+06
4.67751e+06
3.92345e+06
3.18102e+06
2.47764e+06
1.89613e+06
1.64616e+06
8.81282e+07
8.59452e+07
8.673e+07
8.49942e+07
8.4251e+07
8.30199e+07
8.19623e+07
8.08289e+07
7.97227e+07
7.86059e+07
7.7492e+07
7.63791e+07
7.52624e+07
7.41533e+07
7.30323e+07
7.19237e+07
7.07974e+07
6.96226e+07
6.84676e+07
6.7368e+07
6.62573e+07
6.51021e+07
6.39788e+07
6.28588e+07
6.17411e+07
6.06281e+07
5.95133e+07
5.84003e+07
5.72864e+07
5.6173e+07
5.50594e+07
5.3946e+07
5.28325e+07
5.17191e+07
5.06057e+07
4.94923e+07
4.8379e+07
4.72657e+07
4.61524e+07
4.50392e+07
4.39259e+07
4.28127e+07
4.16995e+07
4.05863e+07
3.94731e+07
3.83599e+07
3.72468e+07
3.61337e+07
3.50207e+07
3.39077e+07
3.27948e+07
3.16818e+07
3.05689e+07
2.9456e+07
2.83431e+07
2.72303e+07
2.61176e+07
2.50048e+07
2.38921e+07
2.27795e+07
2.16669e+07
2.05543e+07
1.94418e+07
1.83294e+07
1.7217e+07
1.61048e+07
1.49926e+07
1.38806e+07
1.27686e+07
1.1657e+07
1.05454e+07
9.43469e+06
8.32425e+06
7.21537e+06
6.10871e+06
5.00483e+06
3.90312e+06
2.828e+06
1.82861e+06
1.13823e+06
)
;

boundaryField
{
    top
    {
        type            calculated;
        value           nonuniform List<scalar> 
80
(
8.967e+07
8.65589e+07
8.7494e+07
8.57098e+07
8.4976e+07
8.37346e+07
8.26687e+07
8.15257e+07
8.04099e+07
7.92835e+07
7.816e+07
7.70374e+07
7.5911e+07
7.47926e+07
7.36615e+07
7.25444e+07
7.14066e+07
7.02229e+07
6.90515e+07
6.79416e+07
6.68284e+07
6.56628e+07
6.45296e+07
6.34e+07
6.22723e+07
6.11497e+07
6.00252e+07
5.89025e+07
5.77789e+07
5.66559e+07
5.55326e+07
5.44095e+07
5.32863e+07
5.21632e+07
5.10401e+07
4.99171e+07
4.87941e+07
4.7671e+07
4.65481e+07
4.54251e+07
4.43022e+07
4.31792e+07
4.20563e+07
4.09334e+07
3.98104e+07
3.86875e+07
3.75647e+07
3.64418e+07
3.5319e+07
3.41963e+07
3.30735e+07
3.19508e+07
3.08281e+07
2.97054e+07
2.85827e+07
2.746e+07
2.63374e+07
2.52148e+07
2.40922e+07
2.29696e+07
2.1847e+07
2.07245e+07
1.96019e+07
1.84794e+07
1.73569e+07
1.62344e+07
1.51118e+07
1.39894e+07
1.28668e+07
1.17444e+07
1.06219e+07
9.49982e+06
8.37758e+06
7.25637e+06
6.1364e+06
5.01748e+06
3.89998e+06
2.8091e+06
1.7693e+06
727335
)
;
    }
    left
    {
        type            calculated;
        value           nonuniform List<scalar> 8(9.3201e+07 5.94417e+07 3.33704e+07 1.34777e+07 1.34785e+07 3.33716e+07 5.9443e+07 9.32026e+07);
    }
    right
    {
        type            calculated;
        value           nonuniform List<scalar> 8(1.78809e+06 1.79908e+06 1.76126e+06 1.73543e+06 1.73563e+06 1.76129e+06 1.79908e+06 1.78844e+06);
    }
    bottom
    {
        type            calculated;
        value           nonuniform List<scalar> 
80
(
8.96685e+07
8.65575e+07
8.74926e+07
8.57083e+07
8.49746e+07
8.37331e+07
8.26673e+07
8.15241e+07
8.04088e+07
7.92814e+07
7.816e+07
7.7033e+07
7.5914e+07
7.47779e+07
7.36648e+07
7.24955e+07
7.1321e+07
7.01843e+07
6.87074e+07
6.76207e+07
6.66911e+07
6.55537e+07
6.45214e+07
6.33788e+07
6.22746e+07
6.11452e+07
6.00255e+07
5.89007e+07
5.77781e+07
5.66546e+07
5.55315e+07
5.44082e+07
5.32851e+07
5.2162e+07
5.1039e+07
4.9916e+07
4.8793e+07
4.767e+07
4.6547e+07
4.54241e+07
4.43011e+07
4.31782e+07
4.20553e+07
4.09324e+07
3.98095e+07
3.86866e+07
3.75638e+07
3.6441e+07
3.53182e+07
3.41955e+07
3.30728e+07
3.19501e+07
3.08274e+07
2.97047e+07
2.8582e+07
2.74594e+07
2.63368e+07
2.52142e+07
2.40916e+07
2.29691e+07
2.18465e+07
2.0724e+07
1.96015e+07
1.8479e+07
1.73565e+07
1.6234e+07
1.51115e+07
1.3989e+07
1.28667e+07
1.1744e+07
1.0622e+07
9.49826e+06
8.37717e+06
7.24904e+06
6.12769e+06
4.99594e+06
3.87407e+06
2.80459e+06
1.76484e+06
723113
)
;
    }
    front
    {
        type            empty;
    }
    back
    {
        type            empty;
    }
}


// ************************************************************************* //
