/*--------------------------------*- C++ -*----------------------------------*\
| =========                 |                                                 |
| \\      /  F ield         | foam-extend: Open Source CFD                    |
|  \\    /   O peration     | Version:     4.0                                |
|   \\  /    A nd           | Web:         http://www.foam-extend.org         |
|    \\/     M anipulation  |                                                 |
\*---------------------------------------------------------------------------*/
FoamFile
{
    version     2.0;
    format      ascii;
    class       volScalarField;
    location    "1";
    object      sigmaHyd;
}
// * * * * * * * * * * * * * * * * * * * * * * * * * * * * * * * * * * * * * //

dimensions      [1 -1 -2 0 0 0 0];

internalField   nonuniform List<scalar> 
640
(
-4.66428e+07
-4.31147e+07
-4.3793e+07
-4.28525e+07
-4.25087e+07
-4.18886e+07
-4.13566e+07
-4.07851e+07
-4.02272e+07
-3.96632e+07
-3.91022e+07
-3.85383e+07
-3.79788e+07
-3.74098e+07
-3.68558e+07
-3.62647e+07
-3.57019e+07
-3.50768e+07
-3.42758e+07
-3.3873e+07
-3.33921e+07
-3.27964e+07
-3.22817e+07
-3.17073e+07
-3.11553e+07
-3.059e+07
-3.00298e+07
-2.94671e+07
-2.89055e+07
-2.83434e+07
-2.77815e+07
-2.72196e+07
-2.66577e+07
-2.60958e+07
-2.5534e+07
-2.49722e+07
-2.44103e+07
-2.38485e+07
-2.32867e+07
-2.27249e+07
-2.21631e+07
-2.16014e+07
-2.10396e+07
-2.04778e+07
-1.99161e+07
-1.93543e+07
-1.87926e+07
-1.82308e+07
-1.76691e+07
-1.71074e+07
-1.65458e+07
-1.59841e+07
-1.54225e+07
-1.48608e+07
-1.42991e+07
-1.37375e+07
-1.31759e+07
-1.26143e+07
-1.20527e+07
-1.14911e+07
-1.09295e+07
-1.03679e+07
-9.80631e+06
-9.24473e+06
-8.68317e+06
-8.1216e+06
-7.56006e+06
-6.99848e+06
-6.43698e+06
-5.87532e+06
-5.31402e+06
-4.75183e+06
-4.19119e+06
-3.62669e+06
-3.06781e+06
-2.5026e+06
-1.9359e+06
-1.40742e+06
-891457
-233204
-3.22983e+07
-3.04423e+07
-2.99905e+07
-2.93264e+07
-2.90243e+07
-2.85934e+07
-2.82269e+07
-2.78355e+07
-2.74548e+07
-2.70696e+07
-2.66869e+07
-2.63016e+07
-2.59202e+07
-2.55306e+07
-2.51534e+07
-2.47537e+07
-2.43663e+07
-2.40834e+07
-2.34458e+07
-2.29556e+07
-2.27808e+07
-2.23701e+07
-2.20303e+07
-2.16373e+07
-2.12629e+07
-2.08767e+07
-2.0495e+07
-2.01108e+07
-1.97277e+07
-1.9344e+07
-1.89606e+07
-1.8577e+07
-1.81936e+07
-1.78101e+07
-1.74266e+07
-1.70432e+07
-1.66598e+07
-1.62763e+07
-1.58929e+07
-1.55095e+07
-1.51261e+07
-1.47427e+07
-1.43593e+07
-1.39759e+07
-1.35925e+07
-1.32091e+07
-1.28257e+07
-1.24423e+07
-1.2059e+07
-1.16756e+07
-1.12923e+07
-1.0909e+07
-1.05256e+07
-1.01423e+07
-9.75897e+06
-9.37567e+06
-8.99237e+06
-8.60907e+06
-8.22579e+06
-7.84251e+06
-7.45922e+06
-7.07594e+06
-6.69268e+06
-6.30941e+06
-5.92616e+06
-5.54289e+06
-5.15965e+06
-4.77637e+06
-4.39316e+06
-4.00979e+06
-3.62674e+06
-3.24287e+06
-2.86025e+06
-2.47414e+06
-2.09207e+06
-1.69632e+06
-1.31141e+06
-942040
-489989
71307.5
-2.04705e+07
-1.91844e+07
-1.87316e+07
-1.82836e+07
-1.80933e+07
-1.78211e+07
-1.75944e+07
-1.735e+07
-1.71131e+07
-1.68728e+07
-1.66347e+07
-1.63939e+07
-1.61582e+07
-1.59127e+07
-1.56951e+07
-1.54242e+07
-1.53975e+07
-1.48898e+07
-1.627e+07
-1.43942e+07
-1.44149e+07
-1.39517e+07
-1.37485e+07
-1.34863e+07
-1.3255e+07
-1.30124e+07
-1.27751e+07
-1.25353e+07
-1.22966e+07
-1.20574e+07
-1.18185e+07
-1.15794e+07
-1.13404e+07
-1.11013e+07
-1.08623e+07
-1.06233e+07
-1.03843e+07
-1.01453e+07
-9.90633e+06
-9.66734e+06
-9.42835e+06
-9.18937e+06
-8.95039e+06
-8.7114e+06
-8.47242e+06
-8.23345e+06
-7.99448e+06
-7.75552e+06
-7.51656e+06
-7.27761e+06
-7.03868e+06
-6.79974e+06
-6.56081e+06
-6.32187e+06
-6.08294e+06
-5.84402e+06
-5.60511e+06
-5.36619e+06
-5.12728e+06
-4.88837e+06
-4.64946e+06
-4.41056e+06
-4.17167e+06
-3.93277e+06
-3.69388e+06
-3.45498e+06
-3.2161e+06
-2.97719e+06
-2.73835e+06
-2.49935e+06
-2.26072e+06
-2.0213e+06
-1.78406e+06
-1.54269e+06
-1.3194e+06
-1.06181e+06
-944000
-575900
-302888
94699.5
-6.55962e+06
-6.13639e+06
-5.91027e+06
-5.76828e+06
-5.69517e+06
-5.6087e+06
-5.53581e+06
-5.45869e+06
-5.38408e+06
-5.30821e+06
-5.23366e+06
-5.15693e+06
-5.08412e+06
-5.0027e+06
-4.93686e+06
-4.83201e+06
-4.7906e+06
-4.50344e+06
-4.4816e+06
-4.65662e+06
-4.4875e+06
-4.3857e+06
-4.32399e+06
-4.23971e+06
-4.17041e+06
-4.09295e+06
-4.0193e+06
-3.94351e+06
-3.86867e+06
-3.79331e+06
-3.71819e+06
-3.64295e+06
-3.56776e+06
-3.49255e+06
-3.41736e+06
-3.34217e+06
-3.26697e+06
-3.19178e+06
-3.11659e+06
-3.0414e+06
-2.96621e+06
-2.89103e+06
-2.81584e+06
-2.74066e+06
-2.66547e+06
-2.59029e+06
-2.51511e+06
-2.43993e+06
-2.36475e+06
-2.28958e+06
-2.2144e+06
-2.13923e+06
-2.06407e+06
-1.9889e+06
-1.91373e+06
-1.83856e+06
-1.7634e+06
-1.68823e+06
-1.61307e+06
-1.53791e+06
-1.46275e+06
-1.38759e+06
-1.31243e+06
-1.23727e+06
-1.16212e+06
-1.08695e+06
-1.01181e+06
-936628
-861514
-786250
-711259
-635667
-561133
-484824
-411223
-340086
-245379
-166163
-79551.1
50510.2
6.56048e+06
6.13717e+06
5.911e+06
5.76901e+06
5.69587e+06
5.60944e+06
5.53647e+06
5.45951e+06
5.38459e+06
5.30938e+06
5.23357e+06
5.15959e+06
5.08157e+06
5.01161e+06
4.92338e+06
4.87062e+06
4.7414e+06
4.76521e+06
4.8803e+06
4.56461e+06
4.43519e+06
4.40607e+06
4.31348e+06
4.24925e+06
4.16883e+06
4.09591e+06
4.01931e+06
3.94464e+06
3.86909e+06
3.79402e+06
3.71873e+06
3.64355e+06
3.56832e+06
3.49313e+06
3.41792e+06
3.34271e+06
3.26751e+06
3.19231e+06
3.11711e+06
3.04191e+06
2.96671e+06
2.89151e+06
2.81632e+06
2.74112e+06
2.66592e+06
2.59073e+06
2.51554e+06
2.44035e+06
2.36516e+06
2.28997e+06
2.21479e+06
2.13961e+06
2.06442e+06
1.98924e+06
1.91406e+06
1.83888e+06
1.7637e+06
1.68853e+06
1.61335e+06
1.53817e+06
1.463e+06
1.38782e+06
1.31265e+06
1.23749e+06
1.1623e+06
1.08715e+06
1.01196e+06
936822
861609
786541
711200
636416
560401
486567
407682
336767
273649
182871
75285.9
-46655
2.04714e+07
1.91851e+07
1.87323e+07
1.82843e+07
1.8094e+07
1.78218e+07
1.7595e+07
1.73509e+07
1.71136e+07
1.6874e+07
1.66346e+07
1.63965e+07
1.61554e+07
1.59209e+07
1.56747e+07
1.54527e+07
1.51948e+07
1.50136e+07
1.47769e+07
1.44372e+07
1.42174e+07
1.39785e+07
1.37321e+07
1.3496e+07
1.32531e+07
1.30153e+07
1.2775e+07
1.25364e+07
1.22971e+07
1.20581e+07
1.1819e+07
1.158e+07
1.13409e+07
1.11019e+07
1.08629e+07
1.06239e+07
1.03849e+07
1.01458e+07
9.90684e+06
9.66784e+06
9.42885e+06
9.18985e+06
8.95086e+06
8.71186e+06
8.47287e+06
8.23389e+06
7.99491e+06
7.75593e+06
7.51697e+06
7.27801e+06
7.03906e+06
6.80011e+06
6.56116e+06
6.32222e+06
6.08327e+06
5.84434e+06
5.60541e+06
5.36649e+06
5.12756e+06
4.88864e+06
4.64972e+06
4.4108e+06
4.17189e+06
3.93299e+06
3.69407e+06
3.45517e+06
3.21626e+06
2.97738e+06
2.73844e+06
2.49963e+06
2.26063e+06
2.02205e+06
1.78289e+06
1.54476e+06
1.30558e+06
1.06636e+06
831203
585038
288378
-89949.8
3.22991e+07
3.04431e+07
2.99912e+07
2.93272e+07
2.9025e+07
2.85942e+07
2.82275e+07
2.78364e+07
2.74553e+07
2.70707e+07
2.66868e+07
2.6304e+07
2.59184e+07
2.55384e+07
2.51478e+07
2.47742e+07
2.43735e+07
2.39985e+07
2.36503e+07
2.32027e+07
2.28112e+07
2.24235e+07
2.20309e+07
2.16489e+07
2.12619e+07
2.08794e+07
2.04949e+07
2.01118e+07
1.97281e+07
1.93447e+07
1.89611e+07
1.85776e+07
1.81941e+07
1.78107e+07
1.74272e+07
1.70437e+07
1.66603e+07
1.62768e+07
1.58934e+07
1.551e+07
1.51266e+07
1.47432e+07
1.43597e+07
1.39763e+07
1.35929e+07
1.32095e+07
1.28261e+07
1.24427e+07
1.20594e+07
1.1676e+07
1.12927e+07
1.09093e+07
1.0526e+07
1.01426e+07
9.75931e+06
9.37598e+06
8.99268e+06
8.60937e+06
8.22607e+06
7.84277e+06
7.45947e+06
7.07618e+06
6.6929e+06
6.30963e+06
5.92634e+06
5.54308e+06
5.1598e+06
4.77656e+06
4.39326e+06
4.01006e+06
3.62671e+06
3.24373e+06
2.86024e+06
2.47779e+06
2.09411e+06
1.71207e+06
1.32816e+06
938785
490143
-69028.8
4.66436e+07
4.31154e+07
4.37937e+07
4.28533e+07
4.25094e+07
4.18893e+07
4.13573e+07
4.07859e+07
4.02277e+07
3.96643e+07
3.91021e+07
3.85407e+07
3.7977e+07
3.74179e+07
3.68516e+07
3.62943e+07
3.57229e+07
3.51326e+07
3.4537e+07
3.39803e+07
3.34341e+07
3.28506e+07
3.22833e+07
3.17183e+07
3.11538e+07
3.05923e+07
3.00296e+07
2.9468e+07
2.89058e+07
2.8344e+07
2.77821e+07
2.72202e+07
2.66583e+07
2.60964e+07
2.55345e+07
2.49727e+07
2.44109e+07
2.3849e+07
2.32872e+07
2.27254e+07
2.21636e+07
2.16019e+07
2.10401e+07
2.04783e+07
1.99165e+07
1.93547e+07
1.8793e+07
1.82312e+07
1.76695e+07
1.71078e+07
1.65462e+07
1.59845e+07
1.54228e+07
1.48611e+07
1.42995e+07
1.37378e+07
1.31762e+07
1.26146e+07
1.20529e+07
1.14913e+07
1.09297e+07
1.03681e+07
9.80653e+06
9.24494e+06
8.68336e+06
8.12179e+06
7.56021e+06
6.99866e+06
6.43706e+06
5.87556e+06
5.31396e+06
4.75264e+06
4.1912e+06
3.63036e+06
3.07024e+06
2.51038e+06
1.95306e+06
1.41178e+06
892011
235606
)
;

boundaryField
{
    top
    {
        type            zeroGradient;
    }
    left
    {
        type            zeroGradient;
    }
    right
    {
        type            zeroGradient;
    }
    bottom
    {
        type            zeroGradient;
    }
    front
    {
        type            empty;
    }
    back
    {
        type            empty;
    }
}


// ************************************************************************* //
