/*--------------------------------*- C++ -*----------------------------------*\
| =========                 |                                                 |
| \\      /  F ield         | foam-extend: Open Source CFD                    |
|  \\    /   O peration     | Version:     4.0                                |
|   \\  /    A nd           | Web:         http://www.foam-extend.org         |
|    \\/     M anipulation  |                                                 |
\*---------------------------------------------------------------------------*/
FoamFile
{
    version     2.0;
    format      ascii;
    class       volVectorField;
    location    "1";
    object      DD;
}
// * * * * * * * * * * * * * * * * * * * * * * * * * * * * * * * * * * * * * //

dimensions      [0 1 0 0 0 0 0];

internalField   nonuniform List<vector> 
40960
(
(-1.16324e-06 -1.21055e-06 0)
(-2.86122e-06 -2.29513e-06 0)
(-4.52645e-06 -3.1375e-06 0)
(-6.08899e-06 -3.88007e-06 0)
(-7.65455e-06 -4.60091e-06 0)
(-9.21116e-06 -5.34008e-06 0)
(-1.07775e-05 -6.12525e-06 0)
(-1.23503e-05 -6.97275e-06 0)
(-1.39323e-05 -7.89496e-06 0)
(-1.55215e-05 -8.89982e-06 0)
(-1.71176e-05 -9.99338e-06 0)
(-1.8719e-05 -1.11797e-05 0)
(-2.03248e-05 -1.2462e-05 0)
(-2.19338e-05 -1.38423e-05 0)
(-2.35451e-05 -1.53223e-05 0)
(-2.51581e-05 -1.69029e-05 0)
(-2.67714e-05 -1.85852e-05 0)
(-2.8385e-05 -2.03688e-05 0)
(-2.99982e-05 -2.22537e-05 0)
(-3.16089e-05 -2.42431e-05 0)
(-3.32202e-05 -2.63347e-05 0)
(-3.48292e-05 -2.85278e-05 0)
(-3.64373e-05 -3.08235e-05 0)
(-3.80432e-05 -3.32213e-05 0)
(-3.96472e-05 -3.57214e-05 0)
(-4.12489e-05 -3.83234e-05 0)
(-4.28484e-05 -4.10272e-05 0)
(-4.44456e-05 -4.38327e-05 0)
(-4.60403e-05 -4.67397e-05 0)
(-4.76325e-05 -4.97479e-05 0)
(-4.92223e-05 -5.28573e-05 0)
(-5.08095e-05 -5.60677e-05 0)
(-5.23942e-05 -5.93788e-05 0)
(-5.39763e-05 -6.27905e-05 0)
(-5.55559e-05 -6.63027e-05 0)
(-5.71329e-05 -6.99151e-05 0)
(-5.87073e-05 -7.36276e-05 0)
(-6.02791e-05 -7.744e-05 0)
(-6.18483e-05 -8.13521e-05 0)
(-6.3415e-05 -8.53639e-05 0)
(-6.4979e-05 -8.94751e-05 0)
(-6.65404e-05 -9.36856e-05 0)
(-6.80992e-05 -9.79951e-05 0)
(-6.96552e-05 -0.000102404 0)
(-7.12087e-05 -0.00010691 0)
(-7.27597e-05 -0.000111516 0)
(-7.43081e-05 -0.000116219 0)
(-7.58539e-05 -0.000121022 0)
(-7.73971e-05 -0.000125922 0)
(-7.89376e-05 -0.00013092 0)
(-8.04755e-05 -0.000136016 0)
(-8.20108e-05 -0.000141209 0)
(-8.35436e-05 -0.0001465 0)
(-8.50737e-05 -0.000151888 0)
(-8.66012e-05 -0.000157373 0)
(-8.81261e-05 -0.000162955 0)
(-8.96484e-05 -0.000168634 0)
(-9.1168e-05 -0.000174409 0)
(-9.26851e-05 -0.000180281 0)
(-9.41996e-05 -0.000186249 0)
(-9.57115e-05 -0.000192313 0)
(-9.72208e-05 -0.000198473 0)
(-9.87275e-05 -0.000204729 0)
(-0.000100232 -0.00021108 0)
(-0.000101733 -0.000217527 0)
(-0.000103232 -0.000224069 0)
(-0.000104728 -0.000230706 0)
(-0.000106222 -0.000237438 0)
(-0.000107713 -0.000244265 0)
(-0.000109201 -0.000251186 0)
(-0.000110687 -0.000258202 0)
(-0.000112171 -0.000265312 0)
(-0.000113651 -0.000272516 0)
(-0.000115129 -0.000279814 0)
(-0.000116604 -0.000287206 0)
(-0.000118077 -0.000294691 0)
(-0.000119546 -0.000302269 0)
(-0.000121013 -0.000309942 0)
(-0.000122479 -0.000317707 0)
(-0.000123941 -0.000325565 0)
(-0.000125401 -0.000333516 0)
(-0.000126858 -0.000341559 0)
(-0.000128313 -0.000349695 0)
(-0.000129765 -0.000357924 0)
(-0.000131214 -0.000366244 0)
(-0.000132661 -0.000374656 0)
(-0.000134105 -0.00038316 0)
(-0.000135547 -0.000391756 0)
(-0.000136986 -0.000400443 0)
(-0.000138422 -0.000409221 0)
(-0.000139856 -0.00041809 0)
(-0.000141287 -0.000427051 0)
(-0.000142716 -0.000436102 0)
(-0.000144142 -0.000445244 0)
(-0.000145565 -0.000454476 0)
(-0.000146986 -0.000463799 0)
(-0.000148404 -0.000473211 0)
(-0.00014982 -0.000482714 0)
(-0.000151233 -0.000492306 0)
(-0.000152643 -0.000501988 0)
(-0.000154051 -0.00051176 0)
(-0.000155456 -0.000521621 0)
(-0.000156858 -0.000531571 0)
(-0.000158258 -0.000541609 0)
(-0.000159656 -0.000551737 0)
(-0.00016105 -0.000561953 0)
(-0.000162442 -0.000572258 0)
(-0.000163832 -0.000582651 0)
(-0.000165219 -0.000593132 0)
(-0.000166603 -0.000603702 0)
(-0.000167985 -0.000614359 0)
(-0.000169364 -0.000625103 0)
(-0.000170741 -0.000635935 0)
(-0.000172115 -0.000646855 0)
(-0.000173486 -0.000657862 0)
(-0.000174855 -0.000668955 0)
(-0.000176221 -0.000680136 0)
(-0.000177584 -0.000691403 0)
(-0.000178945 -0.000702756 0)
(-0.000180304 -0.000714196 0)
(-0.000181659 -0.000725722 0)
(-0.000183012 -0.000737334 0)
(-0.000184363 -0.000749032 0)
(-0.000185711 -0.000760816 0)
(-0.000187056 -0.000772685 0)
(-0.000188399 -0.000784639 0)
(-0.000189739 -0.000796679 0)
(-0.000191077 -0.000808803 0)
(-0.000192411 -0.000821013 0)
(-0.000193744 -0.000833307 0)
(-0.000195074 -0.000845685 0)
(-0.000196401 -0.000858148 0)
(-0.000197725 -0.000870696 0)
(-0.000199047 -0.000883327 0)
(-0.000200366 -0.000896042 0)
(-0.000201683 -0.00090884 0)
(-0.000202997 -0.000921722 0)
(-0.000204309 -0.000934688 0)
(-0.000205617 -0.000947737 0)
(-0.000206924 -0.000960868 0)
(-0.000208227 -0.000974083 0)
(-0.000209528 -0.00098738 0)
(-0.000210827 -0.00100076 0)
(-0.000212123 -0.00101422 0)
(-0.000213416 -0.00102777 0)
(-0.000214707 -0.00104139 0)
(-0.000215995 -0.0010551 0)
(-0.00021728 -0.00106889 0)
(-0.000218563 -0.00108276 0)
(-0.000219843 -0.00109672 0)
(-0.000221121 -0.00111075 0)
(-0.000222396 -0.00112486 0)
(-0.000223669 -0.00113906 0)
(-0.000224938 -0.00115334 0)
(-0.000226206 -0.0011677 0)
(-0.000227471 -0.00118213 0)
(-0.000228733 -0.00119665 0)
(-0.000229993 -0.00121125 0)
(-0.000231249 -0.00122593 0)
(-0.000232504 -0.00124068 0)
(-0.000233755 -0.00125552 0)
(-0.000235004 -0.00127044 0)
(-0.000236251 -0.00128543 0)
(-0.000237495 -0.00130051 0)
(-0.000238736 -0.00131566 0)
(-0.000239975 -0.00133089 0)
(-0.000241211 -0.0013462 0)
(-0.000242444 -0.00136159 0)
(-0.000243675 -0.00137706 0)
(-0.000244903 -0.00139261 0)
(-0.000246128 -0.00140823 0)
(-0.000247351 -0.00142393 0)
(-0.000248572 -0.00143971 0)
(-0.00024979 -0.00145557 0)
(-0.000251005 -0.0014715 0)
(-0.000252217 -0.00148751 0)
(-0.000253427 -0.0015036 0)
(-0.000254635 -0.00151976 0)
(-0.000255839 -0.001536 0)
(-0.000257041 -0.00155232 0)
(-0.000258241 -0.00156871 0)
(-0.000259438 -0.00158518 0)
(-0.000260632 -0.00160173 0)
(-0.000261824 -0.00161835 0)
(-0.000263013 -0.00163505 0)
(-0.0002642 -0.00165182 0)
(-0.000265384 -0.00166866 0)
(-0.000266565 -0.00168559 0)
(-0.000267744 -0.00170258 0)
(-0.00026892 -0.00171966 0)
(-0.000270093 -0.0017368 0)
(-0.000271264 -0.00175403 0)
(-0.000272433 -0.00177132 0)
(-0.000273598 -0.00178869 0)
(-0.000274762 -0.00180613 0)
(-0.000275922 -0.00182365 0)
(-0.00027708 -0.00184124 0)
(-0.000278235 -0.00185891 0)
(-0.000279388 -0.00187664 0)
(-0.000280538 -0.00189445 0)
(-0.000281686 -0.00191234 0)
(-0.000282831 -0.00193029 0)
(-0.000283973 -0.00194832 0)
(-0.000285113 -0.00196642 0)
(-0.00028625 -0.0019846 0)
(-0.000287385 -0.00200284 0)
(-0.000288517 -0.00202116 0)
(-0.000289646 -0.00203955 0)
(-0.000290773 -0.00205801 0)
(-0.000291897 -0.00207655 0)
(-0.000293018 -0.00209515 0)
(-0.000294137 -0.00211383 0)
(-0.000295254 -0.00213257 0)
(-0.000296367 -0.00215139 0)
(-0.000297479 -0.00217028 0)
(-0.000298587 -0.00218923 0)
(-0.000299693 -0.00220826 0)
(-0.000300796 -0.00222736 0)
(-0.000301897 -0.00224653 0)
(-0.000302995 -0.00226577 0)
(-0.000304091 -0.00228507 0)
(-0.000305184 -0.00230445 0)
(-0.000306274 -0.0023239 0)
(-0.000307362 -0.00234341 0)
(-0.000308447 -0.002363 0)
(-0.000309529 -0.00238265 0)
(-0.000310609 -0.00240237 0)
(-0.000311686 -0.00242216 0)
(-0.000312761 -0.00244202 0)
(-0.000313833 -0.00246195 0)
(-0.000314902 -0.00248195 0)
(-0.000315969 -0.00250201 0)
(-0.000317033 -0.00252214 0)
(-0.000318095 -0.00254234 0)
(-0.000319154 -0.0025626 0)
(-0.00032021 -0.00258294 0)
(-0.000321264 -0.00260334 0)
(-0.000322316 -0.0026238 0)
(-0.000323364 -0.00264433 0)
(-0.00032441 -0.00266493 0)
(-0.000325454 -0.0026856 0)
(-0.000326494 -0.00270633 0)
(-0.000327533 -0.00272713 0)
(-0.000328568 -0.00274799 0)
(-0.000329601 -0.00276892 0)
(-0.000330631 -0.00278992 0)
(-0.000331659 -0.00281098 0)
(-0.000332684 -0.0028321 0)
(-0.000333707 -0.00285329 0)
(-0.000334727 -0.00287455 0)
(-0.000335744 -0.00289587 0)
(-0.000336759 -0.00291725 0)
(-0.000337771 -0.0029387 0)
(-0.000338781 -0.00296022 0)
(-0.000339788 -0.00298179 0)
(-0.000340792 -0.00300343 0)
(-0.000341794 -0.00302514 0)
(-0.000342793 -0.00304691 0)
(-0.00034379 -0.00306874 0)
(-0.000344783 -0.00309063 0)
(-0.000345775 -0.00311259 0)
(-0.000346764 -0.00313461 0)
(-0.00034775 -0.0031567 0)
(-0.000348733 -0.00317884 0)
(-0.000349714 -0.00320105 0)
(-0.000350693 -0.00322332 0)
(-0.000351668 -0.00324565 0)
(-0.000352641 -0.00326805 0)
(-0.000353612 -0.0032905 0)
(-0.00035458 -0.00331302 0)
(-0.000355545 -0.0033356 0)
(-0.000356508 -0.00335824 0)
(-0.000357468 -0.00338094 0)
(-0.000358426 -0.0034037 0)
(-0.000359381 -0.00342653 0)
(-0.000360333 -0.00344941 0)
(-0.000361283 -0.00347235 0)
(-0.00036223 -0.00349536 0)
(-0.000363174 -0.00351842 0)
(-0.000364116 -0.00354154 0)
(-0.000365056 -0.00356473 0)
(-0.000365992 -0.00358797 0)
(-0.000366927 -0.00361127 0)
(-0.000367858 -0.00363464 0)
(-0.000368787 -0.00365806 0)
(-0.000369713 -0.00368154 0)
(-0.000370637 -0.00370507 0)
(-0.000371558 -0.00372867 0)
(-0.000372477 -0.00375233 0)
(-0.000373392 -0.00377604 0)
(-0.000374306 -0.00379981 0)
(-0.000375216 -0.00382364 0)
(-0.000376125 -0.00384753 0)
(-0.00037703 -0.00387147 0)
(-0.000377933 -0.00389548 0)
(-0.000378833 -0.00391954 0)
(-0.000379731 -0.00394365 0)
(-0.000380626 -0.00396783 0)
(-0.000381518 -0.00399206 0)
(-0.000382408 -0.00401634 0)
(-0.000383295 -0.00404069 0)
(-0.00038418 -0.00406509 0)
(-0.000385062 -0.00408954 0)
(-0.000385942 -0.00411405 0)
(-0.000386818 -0.00413862 0)
(-0.000387693 -0.00416324 0)
(-0.000388564 -0.00418792 0)
(-0.000389433 -0.00421266 0)
(-0.0003903 -0.00423744 0)
(-0.000391164 -0.00426229 0)
(-0.000392025 -0.00428719 0)
(-0.000392884 -0.00431214 0)
(-0.00039374 -0.00433715 0)
(-0.000394593 -0.00436221 0)
(-0.000395444 -0.00438732 0)
(-0.000396292 -0.00441249 0)
(-0.000397138 -0.00443772 0)
(-0.000397981 -0.004463 0)
(-0.000398821 -0.00448833 0)
(-0.000399659 -0.00451371 0)
(-0.000400494 -0.00453915 0)
(-0.000401327 -0.00456464 0)
(-0.000402157 -0.00459018 0)
(-0.000402984 -0.00461577 0)
(-0.000403809 -0.00464142 0)
(-0.000404631 -0.00466712 0)
(-0.000405451 -0.00469287 0)
(-0.000406267 -0.00471868 0)
(-0.000407082 -0.00474453 0)
(-0.000407894 -0.00477044 0)
(-0.000408703 -0.0047964 0)
(-0.000409509 -0.00482241 0)
(-0.000410313 -0.00484847 0)
(-0.000411115 -0.00487458 0)
(-0.000411913 -0.00490075 0)
(-0.000412709 -0.00492696 0)
(-0.000413503 -0.00495323 0)
(-0.000414294 -0.00497954 0)
(-0.000415082 -0.00500591 0)
(-0.000415868 -0.00503232 0)
(-0.000416651 -0.00505878 0)
(-0.000417431 -0.0050853 0)
(-0.000418209 -0.00511186 0)
(-0.000418984 -0.00513848 0)
(-0.000419757 -0.00516514 0)
(-0.000420527 -0.00519185 0)
(-0.000421295 -0.00521861 0)
(-0.000422059 -0.00524542 0)
(-0.000422822 -0.00527227 0)
(-0.000423581 -0.00529918 0)
(-0.000424339 -0.00532613 0)
(-0.000425093 -0.00535313 0)
(-0.000425845 -0.00538018 0)
(-0.000426594 -0.00540728 0)
(-0.000427341 -0.00543442 0)
(-0.000428085 -0.00546162 0)
(-0.000428827 -0.00548885 0)
(-0.000429565 -0.00551614 0)
(-0.000430302 -0.00554347 0)
(-0.000431035 -0.00557085 0)
(-0.000431766 -0.00559828 0)
(-0.000432495 -0.00562575 0)
(-0.000433221 -0.00565327 0)
(-0.000433944 -0.00568083 0)
(-0.000434664 -0.00570844 0)
(-0.000435382 -0.0057361 0)
(-0.000436098 -0.0057638 0)
(-0.000436811 -0.00579155 0)
(-0.000437521 -0.00581934 0)
(-0.000438228 -0.00584718 0)
(-0.000438933 -0.00587506 0)
(-0.000439636 -0.00590298 0)
(-0.000440335 -0.00593095 0)
(-0.000441033 -0.00595897 0)
(-0.000441727 -0.00598703 0)
(-0.000442419 -0.00601513 0)
(-0.000443108 -0.00604328 0)
(-0.000443795 -0.00607147 0)
(-0.000444479 -0.00609971 0)
(-0.000445161 -0.00612798 0)
(-0.00044584 -0.0061563 0)
(-0.000446516 -0.00618467 0)
(-0.00044719 -0.00621308 0)
(-0.000447861 -0.00624153 0)
(-0.000448529 -0.00627002 0)
(-0.000449195 -0.00629855 0)
(-0.000449859 -0.00632713 0)
(-0.000450519 -0.00635575 0)
(-0.000451177 -0.00638441 0)
(-0.000451833 -0.00641311 0)
(-0.000452486 -0.00644185 0)
(-0.000453136 -0.00647064 0)
(-0.000453783 -0.00649947 0)
(-0.000454428 -0.00652833 0)
(-0.000455071 -0.00655724 0)
(-0.000455711 -0.00658619 0)
(-0.000456348 -0.00661518 0)
(-0.000456983 -0.00664421 0)
(-0.000457615 -0.00667328 0)
(-0.000458244 -0.00670239 0)
(-0.000458871 -0.00673154 0)
(-0.000459495 -0.00676073 0)
(-0.000460117 -0.00678996 0)
(-0.000460736 -0.00681923 0)
(-0.000461352 -0.00684854 0)
(-0.000461966 -0.00687788 0)
(-0.000462577 -0.00690727 0)
(-0.000463186 -0.00693669 0)
(-0.000463792 -0.00696616 0)
(-0.000464395 -0.00699566 0)
(-0.000464996 -0.0070252 0)
(-0.000465594 -0.00705478 0)
(-0.00046619 -0.00708439 0)
(-0.000466783 -0.00711405 0)
(-0.000467373 -0.00714374 0)
(-0.000467961 -0.00717347 0)
(-0.000468546 -0.00720323 0)
(-0.000469128 -0.00723303 0)
(-0.000469708 -0.00726287 0)
(-0.000470286 -0.00729275 0)
(-0.00047086 -0.00732266 0)
(-0.000471432 -0.00735261 0)
(-0.000472002 -0.0073826 0)
(-0.000472569 -0.00741262 0)
(-0.000473133 -0.00744268 0)
(-0.000473695 -0.00747277 0)
(-0.000474254 -0.0075029 0)
(-0.00047481 -0.00753306 0)
(-0.000475364 -0.00756326 0)
(-0.000475915 -0.0075935 0)
(-0.000476464 -0.00762377 0)
(-0.00047701 -0.00765407 0)
(-0.000477553 -0.00768441 0)
(-0.000478094 -0.00771478 0)
(-0.000478632 -0.00774519 0)
(-0.000479168 -0.00777563 0)
(-0.000479701 -0.00780611 0)
(-0.000480231 -0.00783662 0)
(-0.000480759 -0.00786716 0)
(-0.000481284 -0.00789774 0)
(-0.000481807 -0.00792835 0)
(-0.000482327 -0.00795899 0)
(-0.000482844 -0.00798967 0)
(-0.000483359 -0.00802038 0)
(-0.000483871 -0.00805112 0)
(-0.00048438 -0.00808189 0)
(-0.000484887 -0.0081127 0)
(-0.000485392 -0.00814353 0)
(-0.000485893 -0.0081744 0)
(-0.000486392 -0.00820531 0)
(-0.000486889 -0.00823624 0)
(-0.000487383 -0.0082672 0)
(-0.000487874 -0.0082982 0)
(-0.000488363 -0.00832923 0)
(-0.000488849 -0.00836028 0)
(-0.000489332 -0.00839137 0)
(-0.000489813 -0.00842249 0)
(-0.000490291 -0.00845364 0)
(-0.000490766 -0.00848482 0)
(-0.000491239 -0.00851603 0)
(-0.00049171 -0.00854727 0)
(-0.000492178 -0.00857854 0)
(-0.000492643 -0.00860984 0)
(-0.000493105 -0.00864117 0)
(-0.000493565 -0.00867253 0)
(-0.000494022 -0.00870392 0)
(-0.000494477 -0.00873533 0)
(-0.000494929 -0.00876678 0)
(-0.000495379 -0.00879825 0)
(-0.000495826 -0.00882975 0)
(-0.00049627 -0.00886128 0)
(-0.000496712 -0.00889284 0)
(-0.000497151 -0.00892443 0)
(-0.000497587 -0.00895604 0)
(-0.000498021 -0.00898769 0)
(-0.000498452 -0.00901936 0)
(-0.000498881 -0.00905105 0)
(-0.000499307 -0.00908278 0)
(-0.00049973 -0.00911453 0)
(-0.000500151 -0.0091463 0)
(-0.000500569 -0.00917811 0)
(-0.000500985 -0.00920994 0)
(-0.000501398 -0.0092418 0)
(-0.000501808 -0.00927368 0)
(-0.000502216 -0.00930559 0)
(-0.000502621 -0.00933752 0)
(-0.000503024 -0.00936948 0)
(-0.000503424 -0.00940147 0)
(-0.000503821 -0.00943348 0)
(-0.000504216 -0.00946552 0)
(-0.000504608 -0.00949758 0)
(-0.000504998 -0.00952967 0)
(-0.000505384 -0.00956178 0)
(-0.000505769 -0.00959391 0)
(-0.000506151 -0.00962607 0)
(-0.00050653 -0.00965826 0)
(-0.000506906 -0.00969046 0)
(-0.00050728 -0.0097227 0)
(-0.000507651 -0.00975495 0)
(-0.00050802 -0.00978723 0)
(-0.000508386 -0.00981953 0)
(-0.000508749 -0.00985186 0)
(-0.00050911 -0.00988421 0)
(-0.000509468 -0.00991658 0)
(-0.000509824 -0.00994897 0)
(-0.000510177 -0.00998139 0)
(-0.000510527 -0.0100138 0)
(-0.000510875 -0.0100463 0)
(-0.00051122 -0.0100788 0)
(-0.000511563 -0.0101113 0)
(-0.000511902 -0.0101438 0)
(-0.00051224 -0.0101763 0)
(-0.000512574 -0.0102089 0)
(-0.000512907 -0.0102415 0)
(-0.000513236 -0.0102741 0)
(-0.000513563 -0.0103068 0)
(-0.000513887 -0.0103394 0)
(-0.000514209 -0.0103721 0)
(-0.000514528 -0.0104048 0)
(-0.000514844 -0.0104375 0)
(-0.000515158 -0.0104702 0)
(-0.000515469 -0.010503 0)
(-0.000515778 -0.0105357 0)
(-0.000516084 -0.0105685 0)
(-0.000516387 -0.0106014 0)
(-0.000516688 -0.0106342 0)
(-0.000516986 -0.010667 0)
(-0.000517281 -0.0106999 0)
(-0.000517574 -0.0107328 0)
(-0.000517865 -0.0107657 0)
(-0.000518152 -0.0107986 0)
(-0.000518437 -0.0108316 0)
(-0.00051872 -0.0108645 0)
(-0.000518999 -0.0108975 0)
(-0.000519277 -0.0109305 0)
(-0.000519551 -0.0109635 0)
(-0.000519823 -0.0109965 0)
(-0.000520093 -0.0110296 0)
(-0.000520359 -0.0110627 0)
(-0.000520623 -0.0110957 0)
(-0.000520885 -0.0111288 0)
(-0.000521144 -0.011162 0)
(-0.0005214 -0.0111951 0)
(-0.000521654 -0.0112282 0)
(-0.000521905 -0.0112614 0)
(-0.000522153 -0.0112946 0)
(-0.000522399 -0.0113278 0)
(-0.000522643 -0.011361 0)
(-0.000522883 -0.0113942 0)
(-0.000523121 -0.0114275 0)
(-0.000523357 -0.0114607 0)
(-0.00052359 -0.011494 0)
(-0.00052382 -0.0115273 0)
(-0.000524047 -0.0115606 0)
(-0.000524272 -0.0115939 0)
(-0.000524495 -0.0116272 0)
(-0.000524715 -0.0116606 0)
(-0.000524932 -0.0116939 0)
(-0.000525146 -0.0117273 0)
(-0.000525358 -0.0117607 0)
(-0.000525568 -0.0117941 0)
(-0.000525774 -0.0118275 0)
(-0.000525978 -0.0118609 0)
(-0.00052618 -0.0118944 0)
(-0.000526379 -0.0119278 0)
(-0.000526575 -0.0119613 0)
(-0.000526769 -0.0119947 0)
(-0.00052696 -0.0120282 0)
(-0.000527148 -0.0120617 0)
(-0.000527334 -0.0120952 0)
(-0.000527517 -0.0121288 0)
(-0.000527697 -0.0121623 0)
(-0.000527875 -0.0121958 0)
(-0.000528051 -0.0122294 0)
(-0.000528223 -0.012263 0)
(-0.000528393 -0.0122965 0)
(-0.000528561 -0.0123301 0)
(-0.000528726 -0.0123637 0)
(-0.000528888 -0.0123973 0)
(-0.000529048 -0.012431 0)
(-0.000529205 -0.0124646 0)
(-0.000529359 -0.0124982 0)
(-0.000529511 -0.0125319 0)
(-0.00052966 -0.0125655 0)
(-0.000529806 -0.0125992 0)
(-0.00052995 -0.0126329 0)
(-0.000530092 -0.0126666 0)
(-0.00053023 -0.0127003 0)
(-0.000530366 -0.012734 0)
(-0.0005305 -0.0127677 0)
(-0.000530631 -0.0128014 0)
(-0.000530759 -0.0128351 0)
(-0.000530884 -0.0128689 0)
(-0.000531007 -0.0129026 0)
(-0.000531128 -0.0129364 0)
(-0.000531246 -0.0129702 0)
(-0.000531361 -0.0130039 0)
(-0.000531473 -0.0130377 0)
(-0.000531583 -0.0130715 0)
(-0.00053169 -0.0131053 0)
(-0.000531795 -0.0131391 0)
(-0.000531897 -0.0131729 0)
(-0.000531996 -0.0132067 0)
(-0.000532093 -0.0132405 0)
(-0.000532187 -0.0132743 0)
(-0.000532279 -0.0133081 0)
(-0.000532368 -0.013342 0)
(-0.000532454 -0.0133758 0)
(-0.000532538 -0.0134097 0)
(-0.000532619 -0.0134435 0)
(-0.000532697 -0.0134774 0)
(-0.000532773 -0.0135112 0)
(-0.000532847 -0.0135451 0)
(-0.000532917 -0.013579 0)
(-0.000532985 -0.0136128 0)
(-0.000533051 -0.0136467 0)
(-0.000533114 -0.0136806 0)
(-0.000533174 -0.0137145 0)
(-0.000533231 -0.0137484 0)
(-0.000533287 -0.0137823 0)
(-0.000533339 -0.0138162 0)
(-0.000533389 -0.0138501 0)
(-0.000533437 -0.013884 0)
(-0.000533482 -0.0139179 0)
(-0.000533524 -0.0139518 0)
(-0.000533565 -0.0139857 0)
(-0.000533602 -0.0140196 0)
(-0.000533638 -0.0140535 0)
(-0.000533671 -0.0140874 0)
(-0.000533703 -0.0141214 0)
(-0.000533732 -0.0141553 0)
(-0.000533759 -0.0141892 0)
(-0.000533785 -0.0142231 0)
(-0.000533809 -0.0142571 0)
(-0.000533832 -0.014291 0)
(-0.000533854 -0.0143249 0)
(-0.000533874 -0.0143589 0)
(-0.000533894 -0.0143928 0)
(-0.000533912 -0.0144268 0)
(-0.000533929 -0.0144608 0)
(-8.63463e-07 -8.75082e-07 0)
(-2.54079e-06 -1.94027e-06 0)
(-4.17412e-06 -2.7937e-06 0)
(-5.73727e-06 -3.54497e-06 0)
(-7.28907e-06 -4.26719e-06 0)
(-8.82526e-06 -5.0066e-06 0)
(-1.0363e-05 -5.79047e-06 0)
(-1.19016e-05 -6.63656e-06 0)
(-1.34448e-05 -7.55723e-06 0)
(-1.4992e-05 -8.56073e-06 0)
(-1.65436e-05 -9.6531e-06 0)
(-1.80987e-05 -1.08385e-05 0)
(-1.96567e-05 -1.21201e-05 0)
(-2.12171e-05 -1.34998e-05 0)
(-2.27789e-05 -1.49794e-05 0)
(-2.43418e-05 -1.65598e-05 0)
(-2.59048e-05 -1.82421e-05 0)
(-2.74683e-05 -2.00255e-05 0)
(-2.90311e-05 -2.19106e-05 0)
(-3.05893e-05 -2.39006e-05 0)
(-3.215e-05 -2.59924e-05 0)
(-3.37081e-05 -2.81858e-05 0)
(-3.52652e-05 -3.04818e-05 0)
(-3.68201e-05 -3.288e-05 0)
(-3.83732e-05 -3.53805e-05 0)
(-3.9924e-05 -3.7983e-05 0)
(-4.14727e-05 -4.06873e-05 0)
(-4.30191e-05 -4.34933e-05 0)
(-4.45632e-05 -4.64008e-05 0)
(-4.61048e-05 -4.94096e-05 0)
(-4.76441e-05 -5.25195e-05 0)
(-4.91809e-05 -5.57304e-05 0)
(-5.07152e-05 -5.90421e-05 0)
(-5.22471e-05 -6.24544e-05 0)
(-5.37765e-05 -6.59671e-05 0)
(-5.53034e-05 -6.958e-05 0)
(-5.68278e-05 -7.3293e-05 0)
(-5.83497e-05 -7.7106e-05 0)
(-5.98691e-05 -8.10187e-05 0)
(-6.1386e-05 -8.5031e-05 0)
(-6.29004e-05 -8.91428e-05 0)
(-6.44122e-05 -9.33538e-05 0)
(-6.59215e-05 -9.76639e-05 0)
(-6.74282e-05 -0.000102073 0)
(-6.89324e-05 -0.00010658 0)
(-7.04342e-05 -0.000111186 0)
(-7.19334e-05 -0.00011589 0)
(-7.34301e-05 -0.000120693 0)
(-7.49243e-05 -0.000125594 0)
(-7.64159e-05 -0.000130593 0)
(-7.7905e-05 -0.000135689 0)
(-7.93916e-05 -0.000140883 0)
(-8.08756e-05 -0.000146174 0)
(-8.23571e-05 -0.000151563 0)
(-8.38361e-05 -0.000157049 0)
(-8.53126e-05 -0.000162631 0)
(-8.67866e-05 -0.000168311 0)
(-8.8258e-05 -0.000174087 0)
(-8.9727e-05 -0.000179959 0)
(-9.11934e-05 -0.000185927 0)
(-9.26573e-05 -0.000191992 0)
(-9.41187e-05 -0.000198153 0)
(-9.55775e-05 -0.000204409 0)
(-9.70339e-05 -0.000210761 0)
(-9.84877e-05 -0.000217208 0)
(-9.9939e-05 -0.000223751 0)
(-0.000101388 -0.000230388 0)
(-0.000102834 -0.000237121 0)
(-0.000104278 -0.000243948 0)
(-0.000105719 -0.00025087 0)
(-0.000107158 -0.000257886 0)
(-0.000108594 -0.000264997 0)
(-0.000110027 -0.000272202 0)
(-0.000111459 -0.0002795 0)
(-0.000112887 -0.000286893 0)
(-0.000114313 -0.000294378 0)
(-0.000115734 -0.000301956 0)
(-0.000117156 -0.00030963 0)
(-0.000118575 -0.000317396 0)
(-0.000119991 -0.000325254 0)
(-0.000121404 -0.000333205 0)
(-0.000122815 -0.00034125 0)
(-0.000124224 -0.000349386 0)
(-0.00012563 -0.000357615 0)
(-0.000127033 -0.000365936 0)
(-0.000128434 -0.000374349 0)
(-0.000129832 -0.000382853 0)
(-0.000131228 -0.000391449 0)
(-0.000132621 -0.000400137 0)
(-0.000134012 -0.000408916 0)
(-0.0001354 -0.000417786 0)
(-0.000136786 -0.000426747 0)
(-0.000138169 -0.000435798 0)
(-0.00013955 -0.000444941 0)
(-0.000140928 -0.000454174 0)
(-0.000142304 -0.000463497 0)
(-0.000143677 -0.00047291 0)
(-0.000145048 -0.000482413 0)
(-0.000146416 -0.000492006 0)
(-0.000147781 -0.000501689 0)
(-0.000149144 -0.000511461 0)
(-0.000150505 -0.000521322 0)
(-0.000151863 -0.000531273 0)
(-0.000153218 -0.000541312 0)
(-0.000154571 -0.00055144 0)
(-0.000155922 -0.000561657 0)
(-0.00015727 -0.000571962 0)
(-0.000158615 -0.000582356 0)
(-0.000159958 -0.000592838 0)
(-0.000161298 -0.000603408 0)
(-0.000162636 -0.000614065 0)
(-0.000163972 -0.00062481 0)
(-0.000165305 -0.000635643 0)
(-0.000166635 -0.000646563 0)
(-0.000167963 -0.00065757 0)
(-0.000169288 -0.000668664 0)
(-0.000170611 -0.000679845 0)
(-0.000171931 -0.000691113 0)
(-0.000173249 -0.000702467 0)
(-0.000174564 -0.000713908 0)
(-0.000175877 -0.000725434 0)
(-0.000177187 -0.000737047 0)
(-0.000178494 -0.000748745 0)
(-0.0001798 -0.000760529 0)
(-0.000181102 -0.000772399 0)
(-0.000182402 -0.000784354 0)
(-0.0001837 -0.000796394 0)
(-0.000184995 -0.000808519 0)
(-0.000186287 -0.000820729 0)
(-0.000187577 -0.000833024 0)
(-0.000188865 -0.000845403 0)
(-0.00019015 -0.000857866 0)
(-0.000191432 -0.000870414 0)
(-0.000192712 -0.000883046 0)
(-0.00019399 -0.000895761 0)
(-0.000195265 -0.000908561 0)
(-0.000196537 -0.000921443 0)
(-0.000197807 -0.000934409 0)
(-0.000199074 -0.000947459 0)
(-0.000200339 -0.000960591 0)
(-0.000201601 -0.000973806 0)
(-0.000202861 -0.000987104 0)
(-0.000204118 -0.00100048 0)
(-0.000205373 -0.00101395 0)
(-0.000206625 -0.00102749 0)
(-0.000207875 -0.00104112 0)
(-0.000209122 -0.00105483 0)
(-0.000210366 -0.00106862 0)
(-0.000211609 -0.00108249 0)
(-0.000212848 -0.00109644 0)
(-0.000214085 -0.00111048 0)
(-0.00021532 -0.00112459 0)
(-0.000216552 -0.00113879 0)
(-0.000217782 -0.00115307 0)
(-0.000219009 -0.00116743 0)
(-0.000220233 -0.00118186 0)
(-0.000221456 -0.00119638 0)
(-0.000222675 -0.00121098 0)
(-0.000223892 -0.00122566 0)
(-0.000225107 -0.00124042 0)
(-0.000226319 -0.00125525 0)
(-0.000227528 -0.00127017 0)
(-0.000228735 -0.00128517 0)
(-0.000229939 -0.00130024 0)
(-0.000231141 -0.0013154 0)
(-0.000232341 -0.00133063 0)
(-0.000233537 -0.00134594 0)
(-0.000234731 -0.00136133 0)
(-0.000235923 -0.0013768 0)
(-0.000237112 -0.00139235 0)
(-0.000238299 -0.00140797 0)
(-0.000239483 -0.00142367 0)
(-0.000240665 -0.00143945 0)
(-0.000241844 -0.00145531 0)
(-0.000243021 -0.00147124 0)
(-0.000244195 -0.00148725 0)
(-0.000245366 -0.00150334 0)
(-0.000246535 -0.00151951 0)
(-0.000247702 -0.00153575 0)
(-0.000248866 -0.00155206 0)
(-0.000250027 -0.00156846 0)
(-0.000251186 -0.00158493 0)
(-0.000252343 -0.00160147 0)
(-0.000253496 -0.0016181 0)
(-0.000254648 -0.00163479 0)
(-0.000255797 -0.00165157 0)
(-0.000256943 -0.00166841 0)
(-0.000258087 -0.00168534 0)
(-0.000259228 -0.00170233 0)
(-0.000260367 -0.00171941 0)
(-0.000261503 -0.00173655 0)
(-0.000262637 -0.00175378 0)
(-0.000263768 -0.00177107 0)
(-0.000264897 -0.00178844 0)
(-0.000266023 -0.00180589 0)
(-0.000267147 -0.0018234 0)
(-0.000268268 -0.001841 0)
(-0.000269387 -0.00185866 0)
(-0.000270503 -0.0018764 0)
(-0.000271616 -0.00189421 0)
(-0.000272728 -0.00191209 0)
(-0.000273836 -0.00193005 0)
(-0.000274942 -0.00194808 0)
(-0.000276046 -0.00196618 0)
(-0.000277147 -0.00198436 0)
(-0.000278245 -0.0020026 0)
(-0.000279341 -0.00202092 0)
(-0.000280435 -0.00203931 0)
(-0.000281526 -0.00205777 0)
(-0.000282614 -0.00207631 0)
(-0.0002837 -0.00209491 0)
(-0.000284784 -0.00211359 0)
(-0.000285865 -0.00213233 0)
(-0.000286943 -0.00215115 0)
(-0.000288019 -0.00217004 0)
(-0.000289092 -0.002189 0)
(-0.000290163 -0.00220803 0)
(-0.000291231 -0.00222713 0)
(-0.000292297 -0.00224629 0)
(-0.00029336 -0.00226553 0)
(-0.000294421 -0.00228484 0)
(-0.000295479 -0.00230422 0)
(-0.000296535 -0.00232367 0)
(-0.000297588 -0.00234318 0)
(-0.000298639 -0.00236277 0)
(-0.000299687 -0.00238242 0)
(-0.000300733 -0.00240214 0)
(-0.000301776 -0.00242194 0)
(-0.000302816 -0.0024418 0)
(-0.000303854 -0.00246172 0)
(-0.00030489 -0.00248172 0)
(-0.000305923 -0.00250178 0)
(-0.000306953 -0.00252191 0)
(-0.000307981 -0.00254211 0)
(-0.000309006 -0.00256238 0)
(-0.000310029 -0.00258271 0)
(-0.00031105 -0.00260311 0)
(-0.000312067 -0.00262358 0)
(-0.000313083 -0.00264411 0)
(-0.000314096 -0.00266471 0)
(-0.000315106 -0.00268538 0)
(-0.000316114 -0.00270611 0)
(-0.000317119 -0.00272691 0)
(-0.000318122 -0.00274777 0)
(-0.000319122 -0.0027687 0)
(-0.000320119 -0.0027897 0)
(-0.000321115 -0.00281076 0)
(-0.000322107 -0.00283189 0)
(-0.000323097 -0.00285308 0)
(-0.000324085 -0.00287433 0)
(-0.00032507 -0.00289565 0)
(-0.000326052 -0.00291704 0)
(-0.000327033 -0.00293849 0)
(-0.00032801 -0.00296 0)
(-0.000328985 -0.00298158 0)
(-0.000329957 -0.00300322 0)
(-0.000330927 -0.00302493 0)
(-0.000331895 -0.00304669 0)
(-0.00033286 -0.00306853 0)
(-0.000333822 -0.00309042 0)
(-0.000334782 -0.00311238 0)
(-0.000335739 -0.0031344 0)
(-0.000336694 -0.00315649 0)
(-0.000337647 -0.00317863 0)
(-0.000338596 -0.00320084 0)
(-0.000339544 -0.00322311 0)
(-0.000340488 -0.00324544 0)
(-0.000341431 -0.00326784 0)
(-0.00034237 -0.0032903 0)
(-0.000343308 -0.00331281 0)
(-0.000344242 -0.00333539 0)
(-0.000345174 -0.00335803 0)
(-0.000346104 -0.00338074 0)
(-0.000347031 -0.0034035 0)
(-0.000347956 -0.00342632 0)
(-0.000348878 -0.00344921 0)
(-0.000349798 -0.00347215 0)
(-0.000350715 -0.00349516 0)
(-0.000351629 -0.00351822 0)
(-0.000352541 -0.00354134 0)
(-0.000353451 -0.00356453 0)
(-0.000354358 -0.00358777 0)
(-0.000355262 -0.00361108 0)
(-0.000356164 -0.00363444 0)
(-0.000357064 -0.00365786 0)
(-0.000357961 -0.00368134 0)
(-0.000358855 -0.00370488 0)
(-0.000359747 -0.00372848 0)
(-0.000360636 -0.00375213 0)
(-0.000361523 -0.00377585 0)
(-0.000362407 -0.00379962 0)
(-0.000363289 -0.00382345 0)
(-0.000364168 -0.00384734 0)
(-0.000365045 -0.00387128 0)
(-0.000365919 -0.00389528 0)
(-0.000366791 -0.00391934 0)
(-0.00036766 -0.00394346 0)
(-0.000368527 -0.00396764 0)
(-0.000369391 -0.00399187 0)
(-0.000370252 -0.00401615 0)
(-0.000371111 -0.0040405 0)
(-0.000371968 -0.0040649 0)
(-0.000372822 -0.00408936 0)
(-0.000373674 -0.00411387 0)
(-0.000374523 -0.00413844 0)
(-0.000375369 -0.00416306 0)
(-0.000376213 -0.00418774 0)
(-0.000377055 -0.00421247 0)
(-0.000377893 -0.00423726 0)
(-0.00037873 -0.00426211 0)
(-0.000379564 -0.004287 0)
(-0.000380395 -0.00431196 0)
(-0.000381224 -0.00433697 0)
(-0.00038205 -0.00436203 0)
(-0.000382874 -0.00438714 0)
(-0.000383695 -0.00441231 0)
(-0.000384514 -0.00443754 0)
(-0.00038533 -0.00446282 0)
(-0.000386144 -0.00448815 0)
(-0.000386955 -0.00451353 0)
(-0.000387764 -0.00453897 0)
(-0.00038857 -0.00456446 0)
(-0.000389374 -0.00459 0)
(-0.000390175 -0.0046156 0)
(-0.000390974 -0.00464125 0)
(-0.00039177 -0.00466695 0)
(-0.000392563 -0.0046927 0)
(-0.000393354 -0.00471851 0)
(-0.000394143 -0.00474436 0)
(-0.000394929 -0.00477027 0)
(-0.000395712 -0.00479623 0)
(-0.000396493 -0.00482224 0)
(-0.000397272 -0.0048483 0)
(-0.000398048 -0.00487441 0)
(-0.000398821 -0.00490058 0)
(-0.000399592 -0.00492679 0)
(-0.00040036 -0.00495306 0)
(-0.000401126 -0.00497937 0)
(-0.000401889 -0.00500574 0)
(-0.00040265 -0.00503215 0)
(-0.000403408 -0.00505862 0)
(-0.000404163 -0.00508513 0)
(-0.000404917 -0.0051117 0)
(-0.000405667 -0.00513831 0)
(-0.000406416 -0.00516497 0)
(-0.000407161 -0.00519168 0)
(-0.000407904 -0.00521844 0)
(-0.000408645 -0.00524525 0)
(-0.000409383 -0.00527211 0)
(-0.000410119 -0.00529902 0)
(-0.000410852 -0.00532597 0)
(-0.000411582 -0.00535297 0)
(-0.00041231 -0.00538002 0)
(-0.000413036 -0.00540712 0)
(-0.000413759 -0.00543427 0)
(-0.000414479 -0.00546146 0)
(-0.000415197 -0.0054887 0)
(-0.000415913 -0.00551598 0)
(-0.000416625 -0.00554332 0)
(-0.000417336 -0.0055707 0)
(-0.000418044 -0.00559812 0)
(-0.000418749 -0.0056256 0)
(-0.000419452 -0.00565311 0)
(-0.000420152 -0.00568068 0)
(-0.00042085 -0.00570829 0)
(-0.000421545 -0.00573595 0)
(-0.000422238 -0.00576365 0)