/*--------------------------------*- C++ -*----------------------------------*\
| =========                 |                                                 |
| \\      /  F ield         | foam-extend: Open Source CFD                    |
|  \\    /   O peration     | Version:     4.0                                |
|   \\  /    A nd           | Web:         http://www.foam-extend.org         |
|    \\/     M anipulation  |                                                 |
\*---------------------------------------------------------------------------*/
FoamFile
{
    version     2.0;
    format      ascii;
    class       volScalarField;
    location    "1";
    object      epsilonEq;
}
// * * * * * * * * * * * * * * * * * * * * * * * * * * * * * * * * * * * * * //

dimensions      [0 0 0 0 0 0 0];

internalField   nonuniform List<scalar> 
40960
(
0.000540915
0.000455631
0.000436925
0.000423668
0.000422739
0.000422801
0.000424924
0.000426994
0.000429189
0.000431073
0.000432704
0.000434007
0.000435029
0.000435767
0.000436285
0.000436562
0.000436645
0.000436645
0.000436276
0.00043596
0.000435739
0.000435311
0.000434884
0.000434336
0.000433775
0.000433167
0.000432541
0.000431894
0.000431234
0.000430562
0.000429883
0.000429197
0.000428506
0.000427812
0.000427116
0.000426418
0.000425719
0.000425019
0.000424319
0.000423616
0.000422909
0.000422199
0.000421473
0.000420757
0.000420074
0.000419382
0.000418676
0.00041797
0.000417261
0.000416553
0.000415846
0.00041514
0.000414434
0.000413729
0.000413025
0.000412321
0.000411617
0.000410913
0.000410209
0.000409505
0.000408801
0.000408097
0.000407393
0.000406688
0.000405984
0.00040528
0.000404577
0.000403872
0.000403169
0.000402462
0.000401761
0.000401042
0.000400346
0.000399579
0.000398868
0.000398029
0.000397357
0.000396843
0.000396104
0.000395444
0.000394761
0.000394018
0.000393301
0.000392589
0.000391884
0.000391182
0.000390481
0.000389778
0.000389074
0.000388368
0.000387662
0.000386956
0.000386252
0.000385546
0.000384844
0.000384135
0.000383425
0.000382733
0.00038203
0.000381321
0.000380617
0.000379911
0.000379207
0.000378503
0.000377799
0.000377097
0.000376394
0.000375692
0.000374989
0.000374285
0.00037358
0.000372875
0.00037217
0.000371465
0.000370761
0.000370058
0.000369354
0.000368651
0.000367948
0.000367245
0.000366542
0.000365838
0.000365134
0.00036443
0.000363725
0.000363021
0.000362316
0.000361612
0.000360907
0.000360203
0.000359498
0.000358793
0.000358088
0.000357383
0.000356679
0.000355974
0.000355269
0.000354565
0.00035386
0.000353155
0.00035245
0.000351745
0.00035104
0.000350334
0.000349629
0.000348924
0.00034822
0.000347516
0.000346816
0.000346118
0.000345421
0.000344742
0.000344028
0.000343309
0.000342629
0.00034196
0.000341254
0.000340507
0.000339771
0.000339089
0.0003384
0.000337676
0.000336966
0.000336254
0.000335546
0.00033484
0.000334135
0.00033343
0.000332726
0.000332022
0.000331317
0.000330613
0.000329908
0.000329203
0.000328498
0.000327792
0.000327086
0.000326379
0.000325675
0.000324971
0.000324275
0.000323585
0.000322876
0.000322162
0.000321458
0.000320754
0.00032005
0.000319345
0.00031864
0.000317935
0.000317232
0.000316528
0.000315825
0.000315123
0.00031442
0.000313716
0.000313014
0.000312311
0.000311608
0.000310905
0.000310202
0.000309499
0.000308796
0.000308093
0.00030739
0.000306686
0.000305982
0.000305278
0.000304573
0.000303868
0.000303164
0.000302461
0.000301759
0.000301058
0.000300355
0.000299649
0.00029894
0.000298224
0.000297513
0.00029682
0.000296122
0.000295417
0.000294712
0.000294003
0.000293296
0.000292589
0.000291883
0.000291177
0.000290472
0.000289767
0.000289062
0.000288357
0.000287652
0.000286947
0.000286243
0.000285538
0.000284834
0.000284129
0.000283425
0.00028272
0.000282016
0.000281312
0.000280607
0.000279903
0.000279199
0.000278495
0.00027779
0.000277085
0.000276379
0.000275673
0.000274968
0.000274262
0.000273558
0.000272854
0.000272151
0.000271449
0.000270748
0.000270047
0.000269344
0.000268638
0.000267932
0.000267226
0.000266521
0.000265817
0.000265113
0.00026441
0.000263707
0.000263004
0.000262301
0.000261599
0.000260896
0.000260192
0.000259488
0.000258783
0.000258079
0.000257374
0.00025667
0.000255965
0.000255261
0.000254556
0.000253851
0.000253146
0.000252442
0.000251738
0.000251035
0.000250331
0.000249627
0.000248922
0.000248217
0.000247511
0.000246806
0.0002461
0.000245394
0.000244689
0.000243985
0.000243282
0.000242581
0.000241877
0.000241167
0.000240459
0.000239754
0.000239049
0.000238347
0.000237644
0.000236941
0.000236239
0.000235538
0.000234838
0.000234139
0.000233432
0.000232719
0.000232005
0.000231302
0.000230603
0.000229901
0.000229199
0.000228495
0.000227789
0.000227083
0.000226377
0.000225671
0.000224965
0.00022426
0.000223556
0.000222852
0.000222149
0.000221446
0.000220743
0.000220038
0.000219331
0.000218624
0.000217904
0.000217205
0.000216512
0.000215792
0.000215068
0.000214366
0.00021367
0.00021297
0.000212272
0.00021157
0.000210869
0.000210166
0.000209464
0.00020876
0.000208056
0.000207352
0.000206648
0.000205944
0.000205241
0.000204538
0.000203833
0.000203129
0.000202423
0.000201718
0.000201013
0.000200307
0.000199602
0.000198897
0.000198192
0.000197486
0.000196779
0.000196072
0.000195365
0.000194658
0.000193952
0.000193249
0.000192545
0.000191841
0.000191136
0.000190431
0.000189726
0.000189021
0.000188315
0.00018761
0.000186904
0.000186199
0.000185495
0.00018479
0.000184085
0.00018338
0.000182674
0.000181967
0.000181261
0.000180555
0.000179849
0.000179144
0.000178439
0.000177733
0.000177028
0.000176322
0.000175617
0.000174913
0.00017421
0.000173508
0.000172806
0.000172112
0.0001714
0.000170684
0.000169988
0.000169296
0.000168588
0.000167875
0.000167168
0.000166459
0.000165754
0.000165048
0.000164345
0.000163641
0.000162937
0.000162233
0.000161529
0.000160824
0.000160117
0.00015941
0.000158701
0.000157992
0.000157285
0.000156579
0.000155876
0.000155172
0.000154468
0.000153763
0.000153057
0.000152351
0.000151645
0.000150941
0.000150237
0.000149532
0.000148828
0.000148123
0.000147417
0.000146711
0.000146005
0.0001453
0.000144594
0.000143888
0.000143181
0.000142475
0.000141768
0.000141062
0.000140356
0.00013965
0.000138944
0.000138238
0.000137531
0.000136824
0.000136117
0.000135411
0.000134705
0.000133998
0.000133292
0.000132585
0.000131878
0.000131172
0.000130465
0.000129758
0.000129052
0.000128346
0.000127642
0.00012694
0.000126234
0.000125528
0.000124822
0.000124115
0.000123409
0.000122704
0.000121999
0.000121294
0.000120589
0.000119884
0.000119178
0.000118472
0.000117766
0.000117061
0.000116357
0.000115652
0.000114945
0.000114239
0.000113532
0.000112825
0.000112119
0.000111412
0.000110705
0.000109998
0.000109292
0.000108587
0.000107882
0.000107179
0.000106474
0.00010577
0.000105064
0.000104358
0.000103652
0.000102945
0.000102238
0.00010153
0.000100823
0.000100117
9.94106e-05
9.87035e-05
9.79963e-05
9.72884e-05
9.65808e-05
9.58742e-05
9.51678e-05
9.44617e-05
9.37549e-05
9.30474e-05
9.23402e-05
9.16336e-05
9.09273e-05
9.02206e-05
8.95142e-05
8.88083e-05
8.81024e-05
8.73964e-05
8.66892e-05
8.59814e-05
8.52747e-05
8.45677e-05
8.38609e-05
8.31545e-05
8.24471e-05
8.17396e-05
8.10319e-05
8.03245e-05
7.96167e-05
7.89081e-05
7.82003e-05
7.74928e-05
7.67855e-05
7.60786e-05
7.53706e-05
7.46623e-05
7.3955e-05
7.3248e-05
7.25415e-05
7.1835e-05
7.11279e-05
7.04211e-05
6.97151e-05
6.90098e-05
6.83037e-05
6.75971e-05
6.6891e-05
6.61853e-05
6.54796e-05
6.47739e-05
6.40676e-05
6.33616e-05
6.26558e-05
6.19498e-05
6.12436e-05
6.05372e-05
5.98323e-05
5.91269e-05
5.8421e-05
5.77153e-05
5.70076e-05
5.62984e-05
5.5589e-05
5.48784e-05
5.41682e-05
5.34584e-05
5.27491e-05
5.2042e-05
5.13359e-05
5.06297e-05
4.99242e-05
4.92177e-05
4.85095e-05
4.78005e-05
4.7092e-05
4.6384e-05
4.56757e-05
4.49681e-05
4.42612e-05
4.3554e-05
4.28465e-05
4.2137e-05
4.14261e-05
4.07182e-05
4.00104e-05
3.93021e-05
3.85938e-05
3.78854e-05
3.71756e-05
3.64665e-05
3.57593e-05
3.50503e-05
3.43419e-05
3.36352e-05
3.29257e-05
3.22168e-05
3.15092e-05
3.08005e-05
3.00933e-05
2.93852e-05
2.86768e-05
2.79687e-05
2.72598e-05
2.65528e-05
2.58443e-05
2.51348e-05
2.44279e-05
2.37187e-05
2.30101e-05
2.23036e-05
2.15942e-05
2.08862e-05
2.01812e-05
1.94742e-05
1.87681e-05
1.80644e-05
1.73613e-05
1.66593e-05
1.59603e-05
1.52648e-05
1.4572e-05
1.38845e-05
1.32031e-05
1.25278e-05
1.18621e-05
1.1208e-05
1.05679e-05
9.94259e-06
9.33624e-06
8.75587e-06
8.19993e-06
7.67638e-06
7.191e-06
6.74668e-06
6.34521e-06
6.00328e-06
5.68129e-06
5.43363e-06
5.02421e-06
4.7217e-06
4.04991e-06
0.000468691
0.000446213
0.000430742
0.000421033
0.000417876
0.000416309
0.000416756
0.000417575
0.000418783
0.00041993
0.000421001
0.000421884
0.000422592
0.000423098
0.000423449
0.000423615
0.000423694
0.000423629
0.000422868
0.00042265
0.000422652
0.000422138
0.000421708
0.000421161
0.00042061
0.000420017
0.000419409
0.000418781
0.000418141
0.000417491
0.000416832
0.000416168
0.000415499
0.000414826
0.000414151
0.000413475
0.000412797
0.000412119
0.00041144
0.00041076
0.000410076
0.000409393
0.000408692
0.000407995
0.000407333
0.000406658
0.00040597
0.000405285
0.000404598
0.000403912
0.000403227
0.000402543
0.000401859
0.000401176
0.000400493
0.00039981
0.000399128
0.000398445
0.000397762
0.00039708
0.000396397
0.000395714
0.000395031
0.000394349
0.000393666
0.000392983
0.000392301
0.000391618
0.000390936
0.000390251
0.000389571
0.000388877
0.00038821
0.000387473
0.00038686
0.000385827
0.000385064
0.000384892
0.000384175
0.000383455
0.000382783
0.000382058
0.000381366
0.00038068
0.000379996
0.000379315
0.000378634
0.000377952
0.000377268
0.000376584
0.000375899
0.000375215
0.000374532
0.000373847
0.000373167
0.00037248
0.000371792
0.000371122
0.000370439
0.000369751
0.00036907
0.000368385
0.000367702
0.000367019
0.000366337
0.000365655
0.000364974
0.000364293
0.000363611
0.000362928
0.000362245
0.000361561
0.000360878
0.000360194
0.000359512
0.000358829
0.000358147
0.000357466
0.000356784
0.000356102
0.00035542
0.000354737
0.000354055
0.000353372
0.000352689
0.000352006
0.000351323
0.00035064
0.000349957
0.000349274
0.00034859
0.000347907
0.000347224
0.00034654
0.000345857
0.000345173
0.00034449
0.000343807
0.000343124
0.00034244
0.000341757
0.000341073
0.000340389
0.000339705
0.000339021
0.000338337
0.000337654
0.000336971
0.00033629
0.00033561
0.000334932
0.000334276
0.000333584
0.000332899
0.000332255
0.000331586
0.000330897
0.000330182
0.00032948
0.000328807
0.000328126
0.000327424
0.000326737
0.000326049
0.000325364
0.00032468
0.000323997
0.000323314
0.000322631
0.000321949
0.000321266
0.000320583
0.0003199
0.000319217
0.000318533
0.000317849
0.000317165
0.000316479
0.000315796
0.000315111
0.000314434
0.000313764
0.000313076
0.000312384
0.000311702
0.000311021
0.000310339
0.000309655
0.000308972
0.00030829
0.000307608
0.000306926
0.000306244
0.000305562
0.000304881
0.000304199
0.000303518
0.000302836
0.000302154
0.000301473
0.000300791
0.000300109
0.000299427
0.000298745
0.000298064
0.000297381
0.000296699
0.000296016
0.000295333
0.000294649
0.000293966
0.000293284
0.000292604
0.000291923
0.000291242
0.000290558
0.000289874
0.00028918
0.00028849
0.000287818
0.000287138
0.000286453
0.000285769
0.000285082
0.000284397
0.000283712
0.000283027
0.000282343
0.000281659
0.000280976
0.000280292
0.000279609
0.000278925
0.000278242
0.000277559
0.000276876
0.000276192
0.000275509
0.000274826
0.000274143
0.00027346
0.000272777
0.000272094
0.000271411
0.000270728
0.000270045
0.000269362
0.000268678
0.000267994
0.00026731
0.000266626
0.000265942
0.000265259
0.000264576
0.000263894
0.000263213
0.000262533
0.000261853
0.000261171
0.000260487
0.000259802
0.000259119
0.000258435
0.000257753
0.000257071
0.000256389
0.000255707
0.000255025
0.000254344
0.000253662
0.00025298
0.000252298
0.000251615
0.000250932
0.000250249
0.000249566
0.000248883
0.0002482
0.000247517
0.000246833
0.00024615
0.000245466
0.000244784
0.000244101
0.000243419
0.000242736
0.000242053
0.00024137
0.000240686
0.000240002
0.000239318
0.000238634
0.000237949
0.000237265
0.000236583
0.0002359
0.000235221
0.000234539
0.00023385
0.000233165
0.000232482
0.000231799
0.000231118
0.000230436
0.000229755
0.000229073
0.000228392
0.000227713
0.000227035
0.00022635
0.00022566
0.000224968
0.000224287
0.00022361
0.000222928
0.000222246
0.000221563
0.000220879
0.000220194
0.00021951
0.000218825
0.000218141
0.000217458
0.000216775
0.000216092
0.00021541
0.000214728
0.000214046
0.000213363
0.00021268
0.000211996
0.000211296
0.000210618
0.000209938
0.000209231
0.000208543
0.000207868
0.000207194
0.000206513
0.000205835
0.000205154
0.000204473
0.000203792
0.00020311
0.000202427
0.000201745
0.000201062
0.00020038
0.000199697
0.000199015
0.000198333
0.00019765
0.000196966
0.000196283
0.000195599
0.000194915
0.000194232
0.000193548
0.000192864
0.00019218
0.000191496
0.000190811
0.000190126
0.00018944
0.000188754
0.000188071
0.000187388
0.000186706
0.000186023
0.000185339
0.000184656
0.000183972
0.000183288
0.000182603
0.000181919
0.000181235
0.000180552
0.000179869
0.000179185
0.000178502
0.000177817
0.000177133
0.000176448
0.000175763
0.000175079
0.000174395
0.000173711
0.000173027
0.000172343
0.000171659
0.000170975
0.000170292
0.000169608
0.000168925
0.000168243
0.000167561
0.00016689
0.0001662
0.000165513
0.000164846
0.000164165
0.000163473
0.000162782
0.000162097
0.00016141
0.000160727
0.000160043
0.00015936
0.000158677
0.000157994
0.000157312
0.000156629
0.000155945
0.00015526
0.000154575
0.000153888
0.000153202
0.000152517
0.000151833
0.00015115
0.000150467
0.000149784
0.0001491
0.000148416
0.000147732
0.000147047
0.000146364
0.000145681
0.000144998
0.000144315
0.000143631
0.000142947
0.000142262
0.000141578
0.000140894
0.000140209
0.000139525
0.00013884
0.000138154
0.00013747
0.000136786
0.000136101
0.000135416
0.000134731
0.000134046
0.000133361
0.000132676
0.000131991
0.000131306
0.000130621
0.000129936
0.000129251
0.000128566
0.000127881
0.000127196
0.000126511
0.000125825
0.000125141
0.000124456
0.000123773
0.000123091
0.000122407
0.000121722
0.000121038
0.000120352
0.000119668
0.000118985
0.000118301
0.000117618
0.000116934
0.00011625
0.000115565
0.000114881
0.000114197
0.000113513
0.00011283
0.000112145
0.00011146
0.000110776
0.000110091
0.000109406
0.000108721
0.000108036
0.000107351
0.000106666
0.000105981
0.000105297
0.000104614
0.000103931
0.000103247
0.000102563
0.00010188
0.000101195
0.00010051
9.9825e-05
9.9139e-05
9.84535e-05
9.77685e-05
9.70836e-05
9.63987e-05
9.57128e-05
9.50268e-05
9.43414e-05
9.36562e-05
9.29712e-05
9.22855e-05
9.16002e-05
9.09152e-05
9.02298e-05
8.95442e-05
8.8859e-05
8.81739e-05
8.74888e-05
8.6804e-05
8.61193e-05
8.54344e-05
8.47495e-05
8.40639e-05
8.33779e-05
8.2693e-05
8.20079e-05
8.1322e-05
8.06365e-05
7.99507e-05
7.9265e-05
7.85792e-05
7.78931e-05
7.72066e-05
7.652e-05
7.58343e-05
7.51487e-05
7.44626e-05
7.37767e-05
7.30903e-05
7.2404e-05
7.1719e-05
7.10338e-05
7.0348e-05
6.96628e-05
6.89776e-05
6.82927e-05
6.76079e-05
6.69234e-05
6.62389e-05
6.55542e-05
6.48694e-05
6.41848e-05
6.35007e-05
6.28166e-05
6.21318e-05
6.1447e-05
6.07625e-05
6.00777e-05
5.93933e-05
5.87087e-05
5.80246e-05
5.73402e-05
5.66549e-05
5.59701e-05
5.52846e-05
5.45973e-05
5.39097e-05
5.32218e-05
5.25341e-05
5.18466e-05
5.11593e-05
5.04737e-05
4.97888e-05
4.91032e-05
4.84183e-05
4.77333e-05
4.70467e-05
4.63595e-05
4.5673e-05
4.49872e-05
4.43009e-05
4.36146e-05
4.29289e-05
4.2243e-05
4.15563e-05
4.08693e-05
4.01812e-05
3.94953e-05
3.88094e-05
3.81223e-05
3.74355e-05
3.67489e-05
3.60614e-05
3.53743e-05
3.46891e-05
3.40022e-05
3.33144e-05
3.26292e-05
3.19424e-05
3.12547e-05
3.05694e-05
2.98834e-05
2.91967e-05
2.85101e-05
2.7824e-05
2.71384e-05
2.64513e-05
2.5765e-05
2.50789e-05
2.43919e-05
2.3707e-05
2.30206e-05
2.23331e-05
2.1649e-05
2.09639e-05
2.02773e-05
1.95942e-05
1.89104e-05
1.82257e-05
1.75445e-05
1.68654e-05
1.61858e-05
1.55072e-05
1.48344e-05
1.41647e-05
1.34975e-05
1.28368e-05
1.21817e-05
1.15339e-05
1.08957e-05
1.02701e-05
9.65683e-06
9.0574e-06
8.47749e-06
7.91815e-06
7.37987e-06
6.86794e-06
6.38128e-06
5.91245e-06
5.46885e-06
5.00071e-06
4.52642e-06
3.9011e-06
3.63528e-06
5.53929e-06
0.000406428
0.000417725
0.000416979
0.000412647
0.000409903
0.00040783
0.000407274
0.000407162
0.000407542
0.000408017
0.000408547
0.000409006
0.000409384
0.000409634
0.00040981
0.000409804
0.000410029
0.000409406
0.000412139
0.000408784
0.000408852
0.000408094
0.000407635
0.000407071
0.000406523
0.000405942
0.000405349
0.000404739
0.000404118
0.000403488
0.000402851
0.000402209
0.000401562
0.000400912
0.00040026
0.000399606
0.000398951
0.000398295
0.00039764
0.000396985
0.000396327
0.000395672
0.000394993
0.000394316
0.00039368
0.000393025
0.000392355
0.000391692
0.000391028
0.000390366
0.000389704
0.000389044
0.000388383
0.000387723
0.000387064
0.000386404
0.000385744
0.000385084
0.000384424
0.000383765
0.000383105
0.000382445
0.000381785
0.000381125
0.000380465
0.000379806
0.000379146
0.000378486
0.000377827
0.000377165
0.000376511
0.000375846
0.000375223
0.000374533
0.000374163
0.000373068
0.000375213
0.000371764
0.000371513
0.000370581
0.00036996
0.000369238
0.000368574
0.000367915
0.000367256
0.000366598
0.000365939
0.00036528
0.000364619
0.000363956
0.000363294
0.000362632
0.000361972
0.00036131
0.000360655
0.00035999
0.000359322
0.000358682
0.000358021
0.000357354
0.000356696
0.000356034
0.000355374
0.000354714
0.000354054
0.000353395
0.000352736
0.000352077
0.000351419
0.000350759
0.000350098
0.000349437
0.000348777
0.000348117
0.000347457
0.000346798
0.000346138
0.000345479
0.00034482
0.000344161
0.000343502
0.000342842
0.000342183
0.000341523
0.000340863
0.000340203
0.000339543
0.000338883
0.000338223
0.000337562
0.000336902
0.000336241
0.000335581
0.000334921
0.00033426
0.0003336
0.00033294
0.000332279
0.000331619
0.000330958
0.000330298
0.000329637
0.000328976
0.000328315
0.000327654
0.000326993
0.000326332
0.00032567
0.00032501
0.000324347
0.000323688
0.000323048
0.0003224
0.000321793
0.000321134
0.00032046
0.000319809
0.000319125
0.000318432
0.000317775
0.000317124
0.000316437
0.000315774
0.000315113
0.000314452
0.000313793
0.000313133
0.000312474
0.000311814
0.000311155
0.000310495
0.000309835
0.000309175
0.000308515
0.000307855
0.000307194
0.000306533
0.00030587
0.000305209
0.000304544
0.000303888
0.000303244
0.000302575
0.000301904
0.000301248
0.000300592
0.000299933
0.000299273
0.000298613
0.000297953
0.000297294
0.000296636
0.000295977
0.000295318
0.00029466
0.000294001
0.000293342
0.000292683
0.000292024
0.000291365
0.000290706
0.000290047
0.000289388
0.000288729
0.00028807
0.000287411
0.000286752
0.000286092
0.000285431
0.000284771
0.00028411
0.00028345
0.000282793
0.000282136
0.000281479
0.000280819
0.00028016
0.000279488
0.000278817
0.000278171
0.000277514
0.000276849
0.000276187
0.000275523
0.000274861
0.000274199
0.000273538
0.000272877
0.000272216
0.000271556
0.000270895
0.000270235
0.000269574
0.000268914
0.000268254
0.000267593
0.000266933
0.000266273
0.000265613
0.000264952
0.000264292
0.000263632
0.000262972
0.000262312
0.000261652
0.000260992
0.000260331
0.00025967
0.000259009
0.000258349
0.000257688
0.000257027
0.000256367
0.000255707
0.000255047
0.000254389
0.000253731
0.000253074
0.000252416
0.000251753
0.000251092
0.000250431
0.000249771
0.000249112
0.000248453
0.000247794
0.000247135
0.000246477
0.000245817
0.000245158
0.000244499
0.000243839
0.00024318
0.00024252
0.00024186
0.0002412
0.00024054
0.00023988
0.00023922
0.000238559
0.000237899
0.000237238
0.000236578
0.000235919
0.000235259
0.000234599
0.000233939
0.000233279
0.000232618
0.000231957
0.000231296
0.000230634
0.000229973
0.000229311
0.000228651
0.000227991
0.000227335
0.000226678
0.000226011
0.000225349
0.00022469
0.000224031
0.000223373
0.000222714
0.000222055
0.000221395
0.000220735
0.000220079
0.000219425
0.000218764
0.000218096
0.000217427
0.00021677
0.000216117
0.000215457
0.000214798
0.000214136
0.000213475
0.000212813
0.000212152
0.000211491
0.00021083
0.000210169
0.000209509
0.000208849
0.00020819
0.00020753
0.000206872
0.000206213
0.000205557
0.000204897
0.000204224
0.000203556
0.000202864
0.000202203
0.000201559
0.000200904
0.000200257
0.000199596
0.00019894
0.00019828
0.000197622
0.000196962
0.000196303
0.000195643
0.000194984
0.000194324
0.000193664
0.000193005
0.000192345
0.000191685
0.000191025
0.000190364
0.000189704
0.000189043
0.000188383
0.000187722
0.000187061
0.0001864
0.000185739
0.000185078
0.000184417
0.000183755
0.000183093
0.000182429
0.000181769
0.00018111
0.00018045
0.00017979
0.000179129
0.000178468
0.000177807
0.000177146
0.000176484
0.000175823
0.000175162
0.000174502
0.000173842
0.000173181
0.00017252
0.000171858
0.000171197
0.000170536
0.000169874
0.000169213
0.000168552
0.000167891
0.00016723
0.000166569
0.000165908
0.000165247
0.000164586
0.000163925
0.000163264
0.000162602
0.000161941
0.00016129
0.000160635
0.000159998
0.000159336
0.000158661
0.000157996
0.000157325
0.000156665
0.000156002
0.000155342
0.000154681
0.00015402
0.00015336
0.0001527
0.000152041
0.000151381
0.00015072
0.000150059
0.000149396
0.000148734
0.000148071
0.000147409
0.000146748
0.000146088
0.000145428
0.000144767
0.000144106
0.000143445
0.000142784
0.000142122
0.000141461
0.000140802
0.000140142
0.000139481
0.00013882
0.000138159
0.000137497
0.000136836
0.000136175
0.000135513
0.000134851
0.00013419
0.000133528
0.000132866
0.000132205
0.000131543
0.000130881
0.000130219
0.000129557
0.000128895
0.000128233
0.000127572
0.00012691
0.000126248
0.000125586
0.000124924
0.000124262
0.000123601
0.000122939
0.000122277
0.000121614
0.000120952
0.00012029
0.000119629
0.000118972
0.00011831
0.000117647
0.000116986
0.000116324
0.000115663
0.000115002
0.000114342
0.000113682
0.00011302
0.000112359
0.000111697
0.000111037
0.000110376
0.000109715
0.000109054
0.000108392
0.00010773
0.000107068
0.000106407
0.000105746
0.000105084
0.000104422
0.00010376
0.000103098
0.000102437
0.000101776
0.000101114
0.000100454
9.97925e-05
9.91314e-05
9.84709e-05
9.78091e-05
9.71472e-05
9.64854e-05
9.58229e-05
9.51608e-05
9.44991e-05
9.38372e-05
9.31752e-05
9.25124e-05
9.18494e-05
9.11877e-05
9.05261e-05
8.98643e-05
8.92013e-05
8.85382e-05
8.78764e-05
8.72148e-05
8.65526e-05
8.589e-05
8.52276e-05
8.45659e-05
8.39043e-05
8.32425e-05
8.258e-05
8.19176e-05
8.12556e-05
8.05931e-05
7.99311e-05
7.92692e-05
7.8606e-05
7.79432e-05
7.72808e-05
7.66184e-05
7.59558e-05
7.52925e-05
7.46292e-05
7.39662e-05
7.3304e-05
7.26417e-05
7.19784e-05
7.13152e-05
7.06522e-05
6.99896e-05
6.9328e-05
6.86662e-05
6.80031e-05
6.73407e-05
6.6679e-05
6.60176e-05
6.53556e-05
6.46935e-05
6.40322e-05
6.3371e-05
6.27093e-05
6.20475e-05
6.13861e-05
6.07253e-05
6.00639e-05
5.94019e-05
5.87402e-05
5.8078e-05
5.74172e-05
5.67562e-05
5.60943e-05
5.54325e-05
5.47698e-05
5.41075e-05
5.3446e-05
5.27825e-05
5.21181e-05
5.14542e-05
5.07905e-05
5.01269e-05
4.94634e-05
4.88006e-05
4.81389e-05
4.74761e-05
4.68132e-05
4.61512e-05
4.54886e-05
4.48251e-05
4.41618e-05
4.34991e-05
4.28366e-05
4.21741e-05
4.15112e-05
4.08479e-05
4.01839e-05
3.95212e-05
3.8858e-05
3.8195e-05
3.75324e-05
3.68689e-05
3.62057e-05
3.55423e-05
3.48791e-05
3.42153e-05
3.35533e-05
3.28912e-05
3.22265e-05
3.15635e-05
3.09011e-05
3.02371e-05
2.95757e-05
2.89143e-05
2.82504e-05
2.75872e-05
2.69248e-05
2.62636e-05
2.56007e-05
2.4937e-05
2.42756e-05
2.36133e-05
2.29516e-05
2.22904e-05
2.16269e-05
2.09659e-05
2.0307e-05
1.96455e-05
1.89856e-05
1.83269e-05
1.76672e-05
1.701e-05
1.63555e-05
1.57015e-05
1.50468e-05
1.43973e-05
1.37518e-05
1.31072e-05
1.24684e-05
1.18355e-05
1.12076e-05
1.05862e-05
9.97431e-06
9.37369e-06
8.7819e-06
8.2016e-06
7.63771e-06
7.08471e-06
6.54538e-06
6.01948e-06
5.49373e-06
4.97489e-06
4.42609e-06
3.90506e-06
3.48944e-06
4.09379e-06
6.75305e-06
0.000359971
0.000387491
0.000398712
0.000399918
0.000399336
0.000397921
0.000397165
0.000396612
0.000396464
0.000396446
0.000396541
0.000396636
0.000396714
0.000396724
0.000396689
0.000396521
0.000396396
0.000395778
0.00039538
0.00039551
0.000395056
0.000394536
0.000394035
0.000393489
0.000392942
0.000392371
0.00039179
0.000391195
0.000390591
0.00038998
0.000389362
0.00038874
0.000388113
0.000387484
0.000386853
0.000386221
0.000385588
0.000384954
0.000384322
0.00038369
0.000383059
0.000382433
0.000381772
0.000381106
0.0003805
0.00037987
0.000379214
0.000378573
0.00037793
0.000377291
0.000376653
0.000376015
0.000375377
0.000374739
0.000374102
0.000373464
0.000372827
0.000372189
0.000371551
0.000370914
0.000370276
0.000369638
0.000369
0.000368363
0.000367725
0.000367087
0.000366449
0.000365811
0.000365174
0.000364536
0.000363903
0.000363264
0.000362646
0.00036201
0.000361425
0.000360807
0.000359699
0.000359127
0.000358805
0.000358121
0.000357548
0.000356863
0.000356221
0.000355594
0.00035496
0.000354325
0.000353688
0.00035305
0.00035241
0.000351769
0.000351128
0.000350488
0.00034985
0.00034921
0.00034858
0.000347935
0.000347287
0.000346677
0.000346037
0.000345388
0.000344753
0.000344113
0.000343476
0.000342838
0.000342199
0.000341562
0.000340925
0.000340289
0.000339652
0.000339014
0.000338375
0.000337737
0.000337098
0.00033646
0.000335823
0.000335186
0.000334548
0.000333912
0.000333275
0.000332638
0.000332
0.000331363
0.000330725
0.000330088
0.00032945
0.000328812
0.000328174
0.000327536
0.000326898
0.00032626
0.000325621
0.000324983
0.000324345
0.000323707
0.000323069
0.00032243
0.000321792
0.000321154
0.000320515
0.000319877
0.000319239
0.0003186
0.000317961
0.000317323
0.000316684
0.000316045
0.000315405
0.000314763
0.000314124
0.000313475
0.00031284
0.000312217
0.000311576
0.000311044
0.000310427
0.000309725
0.00030909
0.00030845
0.000307818
0.000307135
0.00030649
0.000305831
0.000305192
0.000304557
0.000303921
0.000303286
0.000302649
0.000302012
0.000301374
0.000300737
0.0003001
0.000299463
0.000298825
0.000298188
0.00029755
0.000296912
0.000296273
0.000295631
0.000294991
0.000294344
0.00029371
0.000293092
0.000292442
0.000291789
0.000291158
0.000290528
0.000289892
0.000289253
0.000288615
0.000287978
0.000287341
0.000286705
0.000286068
0.000285432
0.000284795
0.000284159
0.000283522
0.000282885
0.000282247
0.00028161
0.000280973
0.000280336
0.000279699
0.000279063
0.000278426
0.000277789
0.000277152
0.000276514
0.000275876
0.000275237
0.000274597
0.000273959
0.000273325
0.000272691
0.000272057
0.000271421
0.000270787
0.000270133
0.000269482
0.000268862
0.000268227
0.00026758
0.000266939
0.000266297
0.000265658
0.000265019
0.00026438
0.000263742
0.000263103
0.000262465
0.000261827
0.000261188
0.00026055
0.000259912
0.000259274
0.000258635
0.000257997
0.000257359
0.000256721
0.000256083
0.000255445
0.000254807
0.000254169
0.000253531
0.000252893
0.000252255
0.000251617
0.000250978
0.000250339
0.000249701
0.000249062
0.000248424
0.000247785
0.000247147
0.000246509
0.000245873
0.000245236
0.000244602
0.000243967
0.000243325
0.000242686
0.000242048
0.00024141
0.000240774
0.000240137
0.0002395
0.000238864
0.000238227
0.00023759
0.000236952
0.000236315
0.000235677
0.00023504
0.000234402
0.000233765
0.000233127
0.00023249
0.000231851
0.000231213
0.000230575
0.000229936
0.000229297
0.000228659
0.000228022
0.000227385
0.000226748
0.00022611
0.000225472
0.000224833
0.000224194
0.000223555
0.000222915
0.000222276
0.000221636
0.000220998
0.000220358
0.000219727
0.000219093
0.000218446
0.000217806
0.000217171
0.000216535
0.000215899
0.000215263
0.000214625
0.000213986
0.000213347
0.000212712
0.000212083
0.000211445
0.000210797
0.000210148
0.000209517
0.000208888
0.000208249
0.000207611
0.000206971
0.000206331
0.000205692
0.000205052
0.000204413
0.000203775
0.000203136
0.000202498
0.00020186
0.000201222
0.000200585
0.00019995
0.000199314
0.000198684
0.000198046
0.000197398
0.00019676
0.000196058
0.000195403
0.000194818
0.000194185
0.000193565
0.000192922
0.000192287
0.000191648
0.00019101
0.000190373
0.000189735
0.000189097
0.00018846
0.000187822
0.000187185
0.000186547
0.000185909
0.000185271
0.000184633
0.000183995
0.000183356
0.000182718
0.00018208
0.000181441
0.000180803
0.000180164
0.000179526
0.000178887
0.000178248
0.000177609
0.000176968
0.000176326
0.000175689
0.000175053
0.000174415
0.000173777
0.000173138
0.000172499
0.000171859
0.00017122
0.000170581
0.000169942
0.000169303
0.000168665
0.000168027
0.000167388
0.000166749
0.00016611
0.00016547
0.000164832
0.000164193
0.000163554
0.000162915
0.000162276
0.000161637
0.000160998
0.00016036
0.000159721
0.000159082
0.000158442
0.000157802
0.000157158
0.000156521
0.00015589
0.000155251
0.000154661
0.000154035
0.000153353
0.000152711
0.000152059
0.000151424
0.000150784
0.000150147
0.000149508
0.00014887
0.000148231
0.000147593
0.000146956
0.000146319
0.000145681
0.000145041
0.000144401
0.000143761
0.000143121
0.000142481
0.000141842
0.000141205
0.000140566
0.000139928
0.00013929
0.000138651
0.000138011
0.000137371
0.000136733
0.000136096
0.000135458
0.000134819
0.00013418
0.000133541
0.000132901
0.000132262
0.000131623
0.000130984
0.000130344
0.000129705
0.000129066
0.000128427
0.000127788
0.000127148
0.000126508
0.000125868
0.000125228
0.000124589
0.000123949
0.00012331
0.000122671
0.000122031
0.000121391
0.000120752
0.000120112
0.000119473
0.000118834
0.000118194
0.000117553
0.000116913
0.000116272
0.000115634
0.000115
0.000114359
0.000113717
0.000113079
0.000112439
0.000111801
0.000111163
0.000110525
0.000109887
0.000109247
0.000108608
0.000107969
0.000107331
0.000106692
0.000106053
0.000105414
0.000104774
0.000104134
0.000103495
0.000102856
0.000102217
0.000101578
0.000100938
0.000100299
9.96592e-05
9.90203e-05
9.83813e-05
9.77418e-05
9.71029e-05
9.64639e-05
9.58248e-05
9.51865e-05
9.4547e-05
9.39069e-05
9.32675e-05
9.26277e-05
9.19882e-05
9.13489e-05
9.0709e-05
9.0069e-05
8.94288e-05
8.87885e-05
8.81492e-05
8.75097e-05
8.68701e-05
8.62296e-05
8.55887e-05
8.49491e-05
8.43098e-05
8.367e-05
8.30297e-05
8.23896e-05
8.17502e-05
8.1111e-05
8.04713e-05
7.98308e-05
7.91904e-05
7.85512e-05
7.79113e-05
7.72712e-05
7.66315e-05
7.59906e-05
7.53503e-05
7.47104e-05
7.40702e-05
7.34297e-05
7.27887e-05
7.21481e-05
7.15078e-05
7.08681e-05
7.0228e-05
6.9587e-05
6.89461e-05