/*--------------------------------*- C++ -*----------------------------------*\
| =========                 |                                                 |
| \\      /  F ield         | foam-extend: Open Source CFD                    |
|  \\    /   O peration     | Version:     4.0                                |
|   \\  /    A nd           | Web:         http://www.foam-extend.org         |
|    \\/     M anipulation  |                                                 |
\*---------------------------------------------------------------------------*/
FoamFile
{
    version     2.0;
    format      ascii;
    class       volSymmTensorField;
    location    "1";
    object      epsilon;
}
// * * * * * * * * * * * * * * * * * * * * * * * * * * * * * * * * * * * * * //

dimensions      [0 0 0 0 0 0 0];

internalField   nonuniform List<symmTensor> 
40960
(
(-0.000643915 -9.22613e-05 -3.86737e-18 0.000245333 1.24768e-18 3.54646e-31)
(-0.000538113 -2.58075e-05 -9.11972e-18 0.000228865 -4.06547e-18 -5.77736e-31)
(-0.000516443 -7.02469e-06 -9.83747e-18 0.000220685 -5.84493e-19 8.3077e-32)
(-0.000500496 -2.26035e-06 3.81759e-17 0.000214484 1.36842e-17 -4.86163e-30)
(-0.000499547 7.8512e-08 -7.73577e-18 0.000213836 -5.52223e-18 -1.56949e-30)
(-0.000499678 7.71303e-07 -2.64718e-17 0.000213789 -8.13007e-18 -1.15536e-30)
(-0.000502265 1.01817e-06 9.35301e-18 0.00021476 3.81492e-18 -5.4213e-31)
(-0.000504759 1.01374e-06 -1.01316e-17 0.000215745 -3.8324e-18 -5.44615e-31)
(-0.000507393 9.17384e-07 1.10193e-17 0.000216801 3.85117e-18 -5.47281e-31)
(-0.000509648 7.84107e-07 -1.19839e-17 0.000217718 -3.86746e-18 -5.49596e-31)
(-0.000511598 6.42702e-07 -9.71394e-18 0.000218515 -4.2183e-18 5.99469e-31)
(-0.000513153 5.07108e-07 2.1103e-17 0.000219153 5.83943e-18 -1.24474e-30)
(-0.000514373 3.83007e-07 3.8005e-17 0.000219655 1.33612e-17 -1.89875e-30)
(-0.000515254 2.72646e-07 -7.12539e-18 0.000220017 1.56385e-19 2.22279e-32)
(-0.000515874 1.76379e-07 -4.58897e-19 0.000220268 -2.39292e-18 1.70028e-31)
(-0.000516202 8.51649e-08 9.16959e-18 0.000220407 4.6368e-18 -5.73244e-45)
(-0.000516317 1.16674e-08 -2.10609e-17 0.000220426 2.0195e-18 5.73983e-31)
(-0.000516288 -6.14349e-08 -3.91914e-17 0.000220465 -1.4343e-17 -2.03826e-30)
(-0.000515816 -2.32958e-07 -2.20062e-17 0.000220325 -3.91377e-18 -5.56177e-31)
(-0.000515524 -9.67732e-08 -2.43779e-18 0.00022006 3.84486e-18 2.73193e-31)
(-0.000515256 -1.63335e-07 -2.74584e-17 0.000219957 -1.82671e-17 1.03956e-43)
(-0.000514735 -1.71335e-07 1.90049e-17 0.00021976 -1.45189e-17 4.12651e-30)
(-0.000514232 -2.01597e-07 1.02463e-16 0.000219542 2.03194e-17 -1.01064e-29)
(-0.000513582 -2.21819e-07 6.45458e-17 0.000219267 2.32432e-17 -4.95457e-30)
(-0.00051292 -2.36668e-07 9.11128e-18 0.000218983 7.25043e-18 3.57472e-47)
(-0.0005122 -2.48194e-07 -9.09851e-18 0.000218676 -7.54006e-18 8.74622e-45)
(-0.000511461 -2.56772e-07 4.64478e-17 0.000218361 -1.77051e-17 6.29012e-30)
(-0.000510696 -2.6343e-07 1.22657e-16 0.000218034 2.16736e-17 -1.078e-29)
(-0.000509916 -2.68524e-07 4.71921e-17 0.000217701 1.64763e-17 -2.34141e-30)
(-0.000509121 -2.72328e-07 6.95112e-17 0.000217362 7.72225e-18 -2.19479e-30)
(-0.000508318 -2.75197e-07 6.28856e-17 0.000217018 1.47635e-17 -3.14701e-30)
(-0.000507506 -2.77335e-07 2.80355e-17 0.000216672 -5.41871e-18 7.70044e-31)
(-0.00050669 -2.78868e-07 3.81951e-17 0.000216323 3.84268e-18 -5.46076e-31)
(-0.000505869 -2.79987e-07 5.90066e-17 0.000215973 5.75468e-18 -1.22668e-30)
(-0.000505046 -2.80693e-07 8.99283e-17 0.000215622 1.7785e-17 -5.0548e-30)
(-0.000504221 -2.81208e-07 8.03393e-17 0.000215269 2.65545e-17 -5.66043e-30)
(-0.000503395 -2.81448e-07 -2.23552e-17 0.000214916 -2.67338e-17 1.05858e-43)
(-0.000502567 -2.81978e-07 1.30172e-17 0.000214563 -9.07159e-18 6.44574e-31)
(-0.000501739 -2.82336e-07 7.19897e-17 0.000214209 1.1338e-17 -2.41683e-30)
(-0.000500908 -2.84273e-07 2.39088e-17 0.000213855 -2.50598e-17 3.5612e-30)
(-0.000500071 -2.8578e-07 1.61049e-16 0.000213497 7.36075e-18 -3.66111e-30)
(-0.000499231 -2.89863e-07 7.26152e-17 0.00021314 5.67919e-18 -1.21059e-30)
(-0.000498373 -2.92041e-07 1.86652e-16 0.000212773 3.18121e-17 -1.58227e-29)
(-0.000497527 -2.81933e-07 6.39133e-17 0.000212411 2.27769e-17 -3.23679e-30)
(-0.000496719 -2.76098e-07 -2.20587e-17 0.000212068 -3.23729e-17 3.5946e-43)
(-0.000495901 -2.82512e-07 2.11587e-16 0.000211717 1.50434e-17 -8.5512e-30)
(-0.000495065 -2.84999e-07 1.35037e-16 0.000211361 9.3863e-18 -3.33468e-30)
(-0.000494231 -2.86218e-07 2.01738e-16 0.000211004 2.69065e-17 -1.33827e-29)
(-0.000493392 -2.86793e-07 1.31466e-17 0.000210646 2.10996e-17 3.9947e-44)
(-0.000492555 -2.86347e-07 -2.18739e-17 0.000210289 -3.58611e-17 2.28346e-43)
(-0.000491719 -2.86133e-07 2.04636e-16 0.000209932 1.3052e-17 -6.49181e-30)
(-0.000490884 -2.85881e-07 5.95758e-17 0.000209576 3.72281e-18 -5.29044e-31)
(-0.00049005 -2.85735e-07 2.21093e-16 0.00020922 2.81834e-17 -1.40178e-29)
(-0.000489217 -2.85524e-07 1.05715e-16 0.000208864 2.87429e-17 -6.1269e-30)
(-0.000488384 -2.85436e-07 -2.16886e-17 0.000208508 -3.93186e-17 2.46876e-43)
(-0.000487551 -2.85405e-07 2.32626e-16 0.000208153 2.8944e-17 -1.43961e-29)
(-0.000486719 -2.85378e-07 -6.08516e-31 0.000207798 -1.08894e-30 -7.38218e-59)
(-0.000485887 -2.85381e-07 2.3165e-16 0.000207442 1.28972e-17 -6.4148e-30)
(-0.000485054 -2.85441e-07 -9.93146e-31 0.000207087 -1.87289e-30 -1.3851e-58)
(-0.000484222 -2.85531e-07 1.02561e-16 0.000206731 5.50843e-18 -1.17419e-30)
(-0.000483389 -2.85667e-07 1.28801e-17 0.000206376 2.60572e-17 1.97782e-43)
(-0.000482557 -2.85759e-07 -8.57193e-18 0.00020602 -1.76439e-17 4.43217e-45)
(-0.000481724 -2.85712e-07 1.71143e-17 0.000205665 3.58315e-17 1.35853e-43)
(-0.000480891 -2.85662e-07 -7.27282e-17 0.000205309 -3.64702e-18 -5.18274e-31)
(-0.000480058 -2.8568e-07 -1.70551e-17 0.000204954 -3.69163e-17 -9.33713e-44)
(-0.000479226 -2.85612e-07 8.34068e-17 0.000204599 2.2363e-17 -3.17796e-30)
(-0.000478394 -2.8551e-07 6.32271e-17 0.000204243 -2.48699e-17 3.5342e-30)
(-0.000477561 -2.85571e-07 3.16692e-16 0.000203888 3.37553e-17 -1.91876e-29)
(-0.00047673 -2.85795e-07 1.27026e-17 0.000203533 2.93059e-17 -3.52037e-43)
(-0.000475894 -2.861e-07 -1.69071e-17 0.000203176 -3.96119e-17 1.955e-43)
(-0.000475064 -2.87006e-07 8.02758e-17 0.000202822 3.60283e-18 -5.11993e-31)
(-0.000474214 -2.8847e-07 1.58481e-16 0.000202459 -2.97812e-18 8.4642e-31)
(-0.000473392 -2.91589e-07 1.40441e-16 0.000202106 4.66031e-17 -9.93402e-30)
(-0.000472484 -3.00055e-07 -8.34818e-17 0.000201721 -3.58328e-18 -5.09215e-31)
(-0.000471658 -2.83021e-07 1.29478e-17 0.000201343 -7.22053e-17 5.13047e-30)
(-0.000470672 -3.14532e-07 3.20498e-16 0.000200911 6.60046e-17 -3.28292e-29)
(-0.000469805 -1.50374e-07 -8.66811e-17 0.000200666 -3.56455e-18 -5.06553e-31)
(-0.00046923 -2.62496e-07 2.1101e-16 0.000200363 -1.30413e-17 4.63317e-30)
(-0.000468387 -2.72942e-07 1.24803e-17 0.000199951 3.33025e-17 1.58631e-43)
(-0.000467593 -2.7454e-07 -9.8147e-17 0.000199635 -2.60114e-17 -3.69642e-30)
(-0.000466788 -2.92195e-07 -4.14591e-18 0.000199286 -1.13647e-17 -1.14754e-45)
(-0.000465909 -2.97759e-07 1.21372e-16 0.000198912 -4.06854e-17 8.67257e-30)
(-0.000465061 -2.91617e-07 2.78998e-16 0.000198551 1.05809e-17 -4.51091e-30)
(-0.000464219 -2.88546e-07 1.57563e-16 0.000198192 5.23148e-17 -1.11515e-29)
(-0.000463386 -2.86743e-07 4.11569e-18 0.000197836 1.18892e-17 2.48663e-44)
(-0.000462555 -2.85821e-07 -4.10831e-18 0.000197482 -1.20197e-17 -2.39771e-45)
(-0.000461725 -2.8612e-07 1.29365e-16 0.000197128 -4.33474e-17 9.23999e-30)
(-0.000460895 -2.86629e-07 2.94659e-16 0.000196773 1.04862e-17 -4.47052e-30)
(-0.000460062 -2.87448e-07 1.65233e-16 0.000196418 5.48733e-17 -1.16969e-29)
(-0.000459227 -2.87672e-07 1.22363e-17 0.000196061 3.76186e-17 7.85403e-44)
(-0.000458393 -2.87904e-07 -1.05402e-16 0.000195705 -1.61453e-17 -2.29438e-30)
(-0.000457558 -2.87508e-07 1.29162e-16 0.000195349 -7.1583e-17 1.52588e-29)
(-0.000456725 -2.87477e-07 3.14241e-16 0.000194993 2.33183e-17 -9.94113e-30)
(-0.000455891 -2.87256e-07 1.16572e-16 0.000194637 4.26243e-17 -6.05724e-30)
(-0.00045506 -2.87664e-07 4.86841e-17 0.000194283 -1.14585e-17 8.14169e-31)
(-0.000454221 -2.89822e-07 1.59716e-16 0.000193925 5.16722e-18 -1.10145e-30)
(-0.000453383 -2.85799e-07 1.65278e-16 0.000193566 1.85978e-17 -3.96434e-30)
(-0.000452563 -2.84359e-07 1.08522e-16 0.000193217 3.43225e-18 -4.87747e-31)
(-0.000451732 -2.88174e-07 1.64314e-16 0.000192862 5.13889e-18 -1.09541e-30)
(-0.000450894 -2.87737e-07 4.00474e-18 0.000192504 1.38226e-17 -7.35309e-45)
(-0.000450062 -2.87391e-07 -7.92797e-32 0.000192149 -2.42527e-33 -2.44888e-61)
(-0.000449227 -2.87362e-07 1.08601e-16 0.000191793 -1.06695e-17 1.51622e-30)
(-0.000448394 -2.8667e-07 2.80024e-16 0.000191437 -5.70136e-18 2.02553e-30)
(-0.000447562 -2.86558e-07 1.7192e-16 0.000191082 5.09146e-18 -1.0853e-30)
(-0.00044673 -2.86141e-07 6.17786e-17 0.000190727 1.61493e-17 -1.14747e-30)
(-0.000445899 -2.85873e-07 3.96038e-18 0.000190372 1.45811e-17 8.42897e-44)
(-0.000445069 -2.85684e-07 1.05774e-16 0.000190017 -4.07447e-17 5.79015e-30)
(-0.000444238 -2.85689e-07 2.9659e-16 0.000189663 8.42276e-18 -2.99234e-30)
(-0.000443407 -2.85992e-07 1.27514e-16 0.000189308 3.32773e-17 -4.72897e-30)
(-0.000442575 -2.86532e-07 1.69163e-16 0.000188953 -4.02118e-17 8.57163e-30)
(-0.000441741 -2.86771e-07 1.82451e-16 0.000188597 5.02525e-18 -1.07119e-30)
(-0.000440907 -2.86764e-07 1.72196e-16 0.000188241 -4.09781e-17 8.73498e-30)
(-0.000440074 -2.86613e-07 6.22025e-16 0.000187885 3.21431e-17 -2.28389e-29)
(-0.00043924 -2.86468e-07 1.44121e-16 0.000187529 8.12285e-17 -1.15432e-29)
(-0.000438408 -2.8629e-07 1.88407e-16 0.000187174 4.98733e-18 -1.0631e-30)
(-0.000437576 -2.86059e-07 1.26593e-16 0.000186818 3.31857e-18 -4.71594e-31)
(-0.000436744 -2.8593e-07 1.75852e-16 0.000186463 -5.88313e-17 1.25406e-29)
(-0.000435913 -2.85903e-07 3.97304e-16 0.000186108 5.81368e-17 -2.47851e-29)
(-0.000435081 -2.85902e-07 1.45003e-16 0.000185753 6.80827e-17 -9.67509e-30)
(-0.00043425 -2.85884e-07 -7.71383e-18 0.000185398 -3.26366e-17 -8.56414e-44)
(-0.000433418 -2.85883e-07 1.31505e-16 0.000185043 3.28704e-18 -4.67113e-31)
(-0.000432586 -2.85938e-07 7.68428e-18 0.000184688 3.31255e-17 2.92671e-43)
(-0.000431754 -2.86027e-07 -2.7479e-31 0.000184333 -1.18557e-30 -2.92264e-60)
(-0.000430921 -2.86042e-07 1.26775e-16 0.000183977 -3.03444e-17 4.31218e-30)
(-0.000430088 -2.85964e-07 -1.14598e-17 0.000183621 -5.07829e-17 8.60648e-43)
(-0.000429255 -2.8589e-07 2.00742e-16 0.000183266 -1.21656e-17 2.59325e-30)
(-0.000428422 -2.85822e-07 2.25031e-16 0.00018291 9.07222e-17 -1.93385e-29)
(-0.000427589 -2.85681e-07 -7.5955e-18 0.000182555 -3.45807e-17 3.4747e-43)
(-0.000426756 -2.8552e-07 4.7985e-16 0.000182199 -2.34938e-17 1.16854e-29)
(-0.000425923 -2.85451e-07 1.51577e-16 0.000181843 5.58233e-17 -7.93294e-30)
(-0.00042509 -2.85428e-07 7.55111e-18 0.000181488 3.5302e-17 1.81707e-43)
(-0.000424256 -2.85359e-07 -1.13045e-17 0.000181132 -5.33122e-17 8.07242e-43)
(-0.000423423 -2.85231e-07 3.50233e-16 0.000180776 -2.77524e-17 9.85964e-30)
(-0.000422589 -2.85077e-07 1.51562e-16 0.00018042 3.9224e-17 -5.57405e-30)
(-0.000421756 -2.84933e-07 -6.50122e-17 0.000180064 3.46578e-17 2.46258e-30)
(-0.000420922 -2.84783e-07 -1.4222e-16 0.000179708 1.50551e-17 2.13946e-30)
(-0.000420089 -2.84637e-07 -2.98491e-17 0.000179353 -1.46927e-16 1.48503e-42)
(-0.000419256 -2.84542e-07 7.35545e-16 0.000178997 -2.58605e-18 1.8376e-30)
(-0.000418423 -2.84528e-07 2.41779e-16 0.000178641 9.77717e-17 -2.08413e-29)
(-0.00041759 -2.84553e-07 2.28321e-16 0.000178285 2.34707e-17 -5.00307e-30)
(-0.000416756 -2.84559e-07 1.54384e-16 0.000177929 2.19985e-17 -3.12617e-30)
(-0.000415922 -2.84577e-07 1.51622e-16 0.000177573 3.15435e-18 -4.48256e-31)
(-0.000415088 -2.84619e-07 3.05118e-16 0.000177217 6.29605e-18 -1.78943e-30)
(-0.000414254 -2.84623e-07 1.49815e-16 0.000176861 -1.60476e-17 2.2805e-30)
(-0.00041342 -2.84515e-07 6.61981e-17 0.000176505 -5.63503e-17 4.00392e-30)
(-0.000412587 -2.84404e-07 5.43757e-16 0.000176149 1.09516e-17 -5.44709e-30)
(-0.000411754 -2.83979e-07 3.98036e-16 0.000175793 4.68841e-17 -1.66565e-29)
(-0.000410922 -2.83589e-07 2.39475e-16 0.000175438 2.43292e-17 -5.18608e-30)
(-0.000410094 -2.81745e-07 1.61785e-16 0.000175084 2.28805e-17 -3.25151e-30)
(-0.000409269 -2.81454e-07 -1.23412e-29 0.000174732 -6.78218e-29 3.42412e-57)
(-0.000408445 -2.77336e-07 -1.08832e-17 0.00017438 -6.00036e-17 4.42626e-43)
(-0.000407643 -2.82365e-07 5.7043e-16 0.000174036 5.10531e-17 -2.53928e-29)
(-0.000406794 -2.97853e-07 2.42748e-16 0.000173682 4.62784e-18 -9.8648e-31)
(-0.000405944 -2.80477e-07 2.36909e-16 0.000173318 -3.60736e-17 7.68955e-30)
(-0.000405144 -2.68524e-07 1.74452e-16 0.00017297 6.44511e-17 -9.15904e-30)
(-0.000404353 -2.7636e-07 9.03795e-31 0.000172632 5.84527e-30 5.90221e-58)
(-0.000403517 -2.98082e-07 -2.15037e-17 0.000172277 -1.24129e-16 6.59371e-42)
(-0.000402633 -2.99394e-07 8.31972e-16 0.0001719 1.52678e-17 -1.08484e-29)
(-0.000401768 -2.87047e-07 1.78421e-17 0.000171522 1.04574e-16 2.00099e-42)
(-0.000400958 -2.76608e-07 -9.83459e-17 0.000171183 -8.56314e-17 -6.08446e-30)
(-0.000400143 -2.88376e-07 5.00214e-16 0.000170836 -3.3178e-17 1.41446e-29)
(-0.000399288 -2.90943e-07 4.17932e-16 0.000170469 -3.49373e-17 1.24122e-29)
(-0.000398447 -2.89236e-07 8.5455e-16 0.000170111 1.51089e-17 -1.07355e-29)
(-0.000397606 -2.88916e-07 6.11923e-16 0.000169752 7.49897e-17 -3.72983e-29)
(-0.000396768 -2.876e-07 6.0094e-16 0.000169394 -1.10589e-17 5.50047e-30)
(-0.000395933 -2.8714e-07 6.94393e-16 0.000169038 1.20109e-17 -6.82737e-30)
(-0.000395099 -2.86702e-07 4.36226e-16 0.000168682 7.49098e-18 -2.66133e-30)
(-0.000394267 -2.867e-07 7.01522e-16 0.000168326 1.19603e-17 -6.79863e-30)
(-0.000393434 -2.86753e-07 6.27425e-16 0.000167971 7.65518e-17 -3.80752e-29)
(-0.000392601 -2.86766e-07 4.49863e-16 0.000167615 5.17376e-17 -1.83808e-29)
(-0.000391768 -2.86808e-07 4.38141e-16 0.000167259 -3.70874e-17 1.3176e-29)
(-0.000390935 -2.86957e-07 4.29946e-16 0.000166904 -1.04428e-16 3.71e-29)
(-0.000390102 -2.87145e-07 8.99018e-16 0.000166548 1.47925e-17 -1.05107e-29)
(-0.000389268 -2.8729e-07 6.49676e-16 0.000166192 1.23272e-16 -6.13129e-29)
(-0.000388434 -2.87544e-07 4.60799e-16 0.000165836 5.27597e-17 -1.8744e-29)
(-0.0003876 -2.87768e-07 4.49202e-16 0.00016548 -3.82651e-17 1.35944e-29)
(-0.000386765 -2.88088e-07 4.41094e-16 0.000165124 -1.07248e-16 3.81018e-29)
(-0.000385929 -2.87814e-07 1.01299e-15 0.000164767 1.60977e-17 -1.25819e-29)
(-0.000385096 -2.86883e-07 7.47035e-16 0.000164411 5.79494e-17 -3.29403e-29)
(-0.000384264 -2.85486e-07 5.54335e-16 0.000164056 -1.44994e-17 6.18145e-30)
(-0.000383442 -2.82294e-07 7.47127e-16 0.000163704 1.16319e-17 -6.61195e-30)
(-0.000382624 -2.85269e-07 7.50585e-16 0.000163356 1.16072e-17 -6.59791e-30)
(-0.000381787 -2.9066e-07 7.57428e-16 0.000162998 3.5148e-17 -1.99793e-29)
(-0.000380943 -2.89725e-07 7.5748e-16 0.000162637 1.1556e-17 -6.56888e-30)
(-0.00038011 -2.87717e-07 5.67309e-16 0.000162282 -1.51331e-17 6.45156e-30)
(-0.000379278 -2.87796e-07 5.76623e-16 0.000161926 3.25174e-17 -1.3863e-29)
(-0.000378445 -2.88162e-07 4.73127e-16 0.000161571 -4.08149e-17 1.45003e-29)
(-0.000377611 -2.88407e-07 1.06036e-15 0.000161215 1.57506e-17 -1.23107e-29)
(-0.000376777 -2.88332e-07 6.94484e-16 0.000160859 1.31041e-16 -6.5177e-29)
(-0.000375945 -2.8834e-07 2.88399e-16 0.000160504 -2.00375e-17 4.27122e-30)
(-0.000375113 -2.88177e-07 8.72363e-16 0.000160148 -3.60384e-17 2.3046e-29)
(-0.000374281 -2.88188e-07 5.00434e-16 0.000159793 8.06732e-17 -2.86608e-29)
(-0.00037345 -2.88278e-07 4.92569e-16 0.000159438 7.08046e-18 -2.51551e-30)
(-0.000372619 -2.88501e-07 6.92541e-16 0.000159084 9.89059e-18 -4.91942e-30)
(-0.000371787 -2.88662e-07 5.03376e-16 0.000158729 5.67313e-17 -2.0155e-29)
(-0.000370956 -2.88771e-07 4.92276e-16 0.000158374 -4.28586e-17 1.52263e-29)
(-0.000370125 -2.88836e-07 4.84518e-16 0.000158019 -1.18234e-16 4.20051e-29)
(-0.000369294 -2.88912e-07 1.00608e-15 0.000157664 1.40034e-17 -9.95005e-30)
(-0.000368463 -2.88975e-07 7.23531e-16 0.00015731 1.36073e-16 -6.76799e-29)
(-0.000367632 -2.89007e-07 5.13726e-16 0.000156955 5.7695e-17 -2.04973e-29)
(-0.000366801 -2.88999e-07 5.0275e-16 0.0001566 -4.39774e-17 1.56238e-29)
(-0.000365969 -2.89016e-07 4.9508e-16 0.000156245 -1.20908e-16 4.29548e-29)
(-0.000365138 -2.89034e-07 1.12947e-15 0.00015589 1.52304e-17 -1.19041e-29)
(-0.000364306 -2.8899e-07 8.31193e-16 0.000155535 6.26017e-17 -3.55849e-29)
(-0.000363475 -2.88955e-07 9.28277e-16 0.00015518 -1.34733e-17 8.61593e-30)
(-0.000362643 -2.89054e-07 6.26681e-16 0.000154825 3.42309e-17 -1.45935e-29)
(-0.00036181 -2.892e-07 7.3023e-16 0.00015447 9.60375e-18 -4.77672e-30)
(-0.000360978 -2.89343e-07 8.3781e-16 0.000154114 1.09504e-17 -6.22462e-30)
(-0.000360144 -2.89369e-07 7.3593e-16 0.000153758 9.55951e-18 -4.75472e-30)
(-0.00035931 -2.89157e-07 6.3004e-16 0.000153402 -1.82124e-17 7.76435e-30)
(-0.000358477 -2.88781e-07 6.38844e-16 0.000153047 3.46444e-17 -1.47698e-29)
(-0.000357646 -2.8786e-07 5.25383e-16 0.000152692 -4.63979e-17 1.64838e-29)
(-0.000356817 -2.8743e-07 1.17425e-15 0.000152338 1.48833e-17 -1.16328e-29)
(-0.000355988 -2.87563e-07 7.5955e-16 0.000151984 8.98211e-17 -4.46751e-29)
(-0.000355157 -2.88791e-07 8.60426e-16 0.000151629 1.07739e-17 -6.12426e-30)
(-0.000354321 -2.89897e-07 7.55674e-16 0.000151272 9.40497e-18 -4.67785e-30)
(-0.000353483 -2.91706e-07 3.31337e-16 0.000150915 5.82027e-17 -1.24066e-29)
(-0.000352636 -2.92361e-07 5.40621e-16 0.000150553 -2.05044e-17 7.28459e-30)
(-0.000351796 -2.86944e-07 9.66704e-16 0.000150194 -1.24441e-16 7.95785e-29)
(-0.000350976 -2.83962e-07 1.41783e-15 0.000149845 -3.74753e-17 3.4616e-29)
(-0.000350151 -2.86879e-07 8.95062e-16 0.000149492 1.48059e-16 -8.41614e-29)
(-0.000349318 -2.88216e-07 3.37206e-16 0.000149136 5.91458e-17 -1.26076e-29)
(-0.000348483 -2.8923e-07 8.79627e-16 0.00014878 -4.47973e-17 2.54642e-29)
(-0.000347646 -2.89655e-07 7.87102e-16 0.000148423 9.25755e-17 -4.60451e-29)
(-0.000346809 -2.89459e-07 5.57557e-16 0.000148065 6.57543e-18 -2.33606e-30)
(-0.000345973 -2.89286e-07 7.83315e-16 0.000147708 9.1834e-18 -4.56764e-30)
(-0.000345138 -2.89136e-07 3.3381e-16 0.000147352 -2.41494e-17 5.14772e-30)
(-0.000344304 -2.89126e-07 1.00495e-15 0.000146996 -7.27681e-17 4.65342e-29)
(-0.00034347 -2.89078e-07 1.01152e-15 0.00014664 -4.48177e-17 2.86603e-29)
(-0.000342636 -2.89061e-07 1.47492e-15 0.000146284 1.68904e-17 -1.56018e-29)
(-0.000341803 -2.89146e-07 1.03064e-15 0.000145928 6.85908e-17 -4.38629e-29)
(-0.000340969 -2.89268e-07 9.13812e-16 0.000145572 1.03435e-17 -5.87962e-30)
(-0.000340136 -2.89301e-07 9.19905e-16 0.000145216 3.89735e-17 -2.21538e-29)
(-0.000339302 -2.89276e-07 8.04956e-16 0.000144861 9.00634e-18 -4.47958e-30)
(-0.000338469 -2.89251e-07 6.89249e-16 0.000144505 -2.11458e-17 9.01496e-30)
(-0.000337636 -2.89267e-07 9.29056e-16 0.000144149 3.91843e-17 -2.22736e-29)
(-0.000336803 -2.89272e-07 5.74705e-16 0.000143794 -5.16883e-17 1.83633e-29)
(-0.00033597 -2.89205e-07 1.51472e-15 0.000143438 1.65618e-17 -1.52982e-29)
(-0.000335137 -2.89114e-07 8.2422e-16 0.000143082 6.73487e-17 -3.34978e-29)
(-0.000334304 -2.89072e-07 1.06139e-15 0.000142727 7.00507e-17 -4.47964e-29)
(-0.000333471 -2.89058e-07 5.91209e-16 0.000142371 3.57375e-17 -1.26965e-29)
(-0.000332638 -2.88985e-07 3.54075e-16 0.000142016 3.78407e-18 -8.06618e-31)
(-0.000331805 -2.88829e-07 5.91999e-16 0.00014166 6.29098e-18 -2.23499e-30)
(-0.000330973 -2.88737e-07 9.3549e-16 0.000141305 -1.3844e-16 7.86936e-29)
(-0.00033014 -2.88779e-07 1.54011e-15 0.000140949 -7.30931e-17 6.75163e-29)
(-0.000329307 -2.88835e-07 1.20981e-15 0.000140594 1.61898e-16 -1.15035e-28)
(-0.000328474 -2.88864e-07 3.65502e-16 0.000140238 6.36865e-17 -1.35756e-29)
(-0.00032764 -2.8894e-07 9.56254e-16 0.000139882 -5.01956e-17 2.85328e-29)
(-0.000326806 -2.89102e-07 8.53106e-16 0.000139525 9.91537e-17 -4.93169e-29)
(-0.000325971 -2.89167e-07 6.04982e-16 0.000139169 6.18038e-18 -2.1957e-30)
(-0.000325136 -2.88958e-07 8.49545e-16 0.000138813 8.63037e-18 -4.29255e-30)
(-0.000324302 -2.88669e-07 3.62309e-16 0.000138457 -2.67458e-17 5.7012e-30)
(-0.000323469 -2.88406e-07 1.09024e-15 0.000138101 -8.05398e-17 5.15041e-29)
(-0.000322637 -2.88167e-07 1.0964e-15 0.000137746 -5.0224e-17 3.21176e-29)
(-0.000321806 -2.87741e-07 1.35962e-15 0.000137391 1.05548e-16 -8.24957e-29)
(-0.000320976 -2.87413e-07 7.47664e-16 0.000137037 9.96995e-17 -4.25043e-29)
(-0.000320147 -2.87418e-07 8.59141e-16 0.000136683 -5.32807e-17 2.65007e-29)
(-0.000319318 -2.87776e-07 8.67352e-16 0.000136329 8.47592e-18 -4.21573e-30)
(-0.000318486 -2.88968e-07 8.67042e-16 0.000135974 -2.26156e-17 1.12485e-29)
(-0.000317652 -2.89712e-07 7.44935e-16 0.000135617 -2.3932e-17 1.02028e-29)
(-0.000316817 -2.89619e-07 1.00831e-15 0.000135261 1.03357e-16 -5.87513e-29)
(-0.000315983 -2.8951e-07 3.70409e-16 0.000134905 -5.9081e-17 1.25938e-29)
(-0.000315149 -2.89215e-07 1.37706e-15 0.000134549 -4.97081e-17 3.88516e-29)
(-0.000314317 -2.89023e-07 8.90736e-16 0.000134194 1.0289e-16 -5.11751e-29)
(-0.000313484 -2.88957e-07 1.26962e-15 0.000133838 7.50953e-17 -5.33582e-29)
(-0.000312652 -2.88955e-07 6.39347e-16 0.000133483 6.93124e-17 -2.46246e-29)
(-0.000311821 -2.88954e-07 1.21572e-16 0.000133128 -6.23782e-17 4.43222e-30)
(-0.00031099 -2.88916e-07 8.83947e-16 0.000132773 -8.73495e-17 4.34457e-29)
(-0.000310159 -2.88946e-07 1.01423e-15 0.000132419 -8.64581e-17 4.91456e-29)
(-0.000309328 -2.89148e-07 1.40978e-15 0.000132064 1.29026e-17 -1.00846e-29)
(-0.000308497 -2.89434e-07 1.0363e-15 0.000131709 1.05749e-16 -6.01111e-29)
(-0.000307665 -2.89659e-07 9.04735e-16 0.000131354 4.03836e-17 -2.00859e-29)
(-0.000306832 -2.89829e-07 1.03363e-15 0.000130998 9.30797e-18 -5.29096e-30)
(-0.000305999 -2.89948e-07 9.12284e-16 0.000130642 7.29025e-17 -3.62601e-29)
(-0.000305166 -2.8999e-07 6.49472e-16 0.000130287 5.78591e-18 -2.05556e-30)
(-0.000304333 -2.89973e-07 9.11667e-16 0.000129931 8.07817e-18 -4.0179e-30)
(-0.0003035 -2.89983e-07 1.30581e-16 0.000129576 1.15087e-18 -8.17736e-32)
(-0.000302667 -2.90052e-07 9.08394e-16 0.00012922 -9.0166e-17 4.48466e-29)
(-0.000301834 -2.90057e-07 1.17333e-15 0.000128864 -8.81546e-17 5.63737e-29)
(-0.000301 -2.89907e-07 1.45031e-15 0.000128508 4.54588e-17 -3.55303e-29)
(-0.000300167 -2.89694e-07 1.06087e-15 0.000128153 7.50823e-17 -4.26792e-29)
(-0.000299333 -2.89466e-07 1.05559e-15 0.000127797 -2.39922e-17 1.3638e-29)
(-0.000298501 -2.89095e-07 1.06359e-15 0.000127441 4.22124e-17 -2.39948e-29)
(-0.000297669 -2.88803e-07 6.72701e-16 0.000127086 1.05367e-16 -3.74338e-29)
(-0.000296837 -2.88749e-07 6.63809e-16 0.000126731 -2.76969e-17 9.8399e-30)
(-0.000296004 -2.88837e-07 1.06899e-15 0.000126376 8.97957e-18 -5.10424e-30)
(-0.000295172 -2.89015e-07 3.96627e-16 0.00012602 -6.36258e-17 1.35626e-29)
(-0.000294338 -2.89181e-07 1.47195e-15 0.000125664 -5.48725e-17 4.28881e-29)
(-0.000293505 -2.89411e-07 9.5538e-16 0.000125308 1.7608e-16 -8.75783e-29)
(-0.000292671 -2.89649e-07 1.07961e-15 0.000124952 8.87843e-18 -5.04676e-30)
(-0.000291836 -2.89883e-07 1.07706e-15 0.000124596 -5.87927e-17 3.34197e-29)
(-0.000291001 -2.89956e-07 6.78049e-16 0.000124239 5.51736e-18 -1.96015e-30)
(-0.000290167 -2.8997e-07 9.48985e-16 0.000123883 -2.62848e-17 1.30735e-29)
(-0.000289333 -2.89554e-07 1.0824e-15 0.000123527 -9.34289e-17 5.3108e-29)
(-0.000288501 -2.89221e-07 1.50249e-15 0.000123172 1.20339e-17 -9.40559e-30)
(-0.00028767 -2.88817e-07 1.10298e-15 0.000122817 1.11421e-16 -6.33352e-29)
(-0.000286841 -2.88862e-07 9.63221e-16 0.000122463 4.19263e-17 -2.08532e-29)
(-0.000286009 -2.91133e-07 1.1005e-15 0.000122108 8.67634e-18 -4.93189e-30)
(-0.000285169 -2.92186e-07 9.70257e-16 0.000121749 7.6517e-17 -3.80579e-29)
(-0.000284331 -2.90972e-07 6.91028e-16 0.000121392 5.39091e-18 -1.91522e-30)
(-0.000283497 -2.90162e-07 9.69679e-16 0.000121036 7.52515e-18 -3.74281e-30)
(-0.000282665 -2.89418e-07 4.16534e-16 0.000120681 3.21559e-18 -6.85437e-31)
(-0.000281834 -2.89148e-07 9.66632e-16 0.000120326 -9.68992e-17 4.81956e-29)
(-0.000281003 -2.89268e-07 1.24784e-15 0.000119971 -9.50281e-17 6.07692e-29)
(-0.000280172 -2.89271e-07 1.54025e-15 0.000119616 4.66384e-17 -3.64522e-29)
(-0.000279342 -2.88958e-07 1.12586e-15 0.000119262 7.85355e-17 -4.4642e-29)
(-0.000278512 -2.88501e-07 1.12094e-15 0.000118907 -2.66604e-17 1.51547e-29)
(-0.000277685 -2.87955e-07 1.12839e-15 0.000118554 4.36116e-17 -2.47902e-29)
(-0.000276858 -2.89746e-07 7.12644e-16 0.000118202 1.11047e-16 -3.94517e-29)
(-0.000276023 -2.92833e-07 8.45741e-16 0.000117845 -2.90639e-17 1.23907e-29)
(-0.000275179 -2.94581e-07 1.13341e-15 0.000117485 8.34786e-18 -4.74514e-30)
(-0.000274336 -2.92518e-07 4.21085e-16 0.000117124 -6.78775e-17 1.44689e-29)
(-0.000273503 -2.89106e-07 1.56038e-15 0.000116769 -5.97442e-17 4.66958e-29)
(-0.000272677 -2.88847e-07 1.01033e-15 0.000116417 1.85504e-16 -9.22658e-29)
(-0.000271847 -2.89483e-07 1.14328e-15 0.000116062 8.24677e-18 -4.68768e-30)
(-0.000271017 -2.89873e-07 1.14091e-15 0.000115708 -6.33916e-17 3.60339e-29)
(-0.000270184 -2.90609e-07 7.17605e-16 0.000115352 5.12269e-18 -1.81992e-30)
(-0.00026935 -2.90809e-07 1.00439e-15 0.000114996 -2.88093e-17 1.43292e-29)
(-0.000268515 -2.90902e-07 1.14588e-15 0.00011464 -9.99588e-17 5.68198e-29)
(-0.00026768 -2.90737e-07 1.59112e-15 0.000114283 4.72759e-17 -3.69505e-29)
(-0.000266845 -2.90539e-07 1.45444e-15 0.000113927 1.18676e-16 -8.43241e-29)
(-0.000266011 -2.9023e-07 1.44797e-15 0.00011357 -2.61737e-17 1.85976e-29)
(-0.000265177 -2.89856e-07 1.74399e-15 0.000113215 1.20666e-17 -1.02885e-29)
(-0.000264344 -2.89424e-07 1.45866e-15 0.000112859 4.64344e-17 -3.29934e-29)
(-0.000263512 -2.89079e-07 1.16743e-15 0.000112504 7.99391e-18 -4.54397e-30)
(-0.000262681 -2.8888e-07 1.1698e-15 0.000112149 7.96867e-18 -4.52963e-30)
(-0.000261849 -2.88965e-07 1.17217e-15 0.000111794 7.94344e-18 -4.51529e-30)
(-0.000261018 -2.89034e-07 1.61498e-15 0.000111439 1.08875e-17 -8.50961e-30)
(-0.000260184 -2.90039e-07 1.4711e-15 0.000111083 9.86615e-18 -7.01028e-30)
(-0.000259349 -2.90281e-07 1.48094e-15 0.000110726 1.20395e-16 -8.55453e-29)
(-0.000258512 -2.93186e-07 2.9539e-16 0.000110369 1.96055e-18 -2.7861e-31)
(-0.000257661 -2.90371e-07 1.47299e-15 0.000110006 -1.01227e-16 7.19258e-29)
(-0.000256838 -2.80909e-07 1.63103e-15 0.000109649 1.07127e-17 -8.37298e-30)
(-0.000256018 -2.91366e-07 1.18852e-15 0.0001093 7.76623e-18 -4.41458e-30)
(-0.000255164 -2.99643e-07 1.49309e-15 0.00010894 8.41089e-17 -5.97628e-29)
(-0.000254308 -2.94091e-07 1.19314e-15 0.000108574 7.71462e-18 -4.38525e-30)
(-0.000253477 -2.86183e-07 1.04149e-15 0.00010822 -6.79909e-17 3.38172e-29)
(-0.000252655 -2.87524e-07 1.64685e-15 0.000107868 1.05387e-17 -8.23701e-30)
(-0.000251826 -2.86952e-07 1.49998e-15 0.000107515 9.54924e-18 -6.78514e-30)
(-0.000251002 -2.88017e-07 1.50281e-15 0.000107162 9.51793e-18 -6.76288e-30)
(-0.000250172 -2.88475e-07 1.50564e-15 0.000106808 9.48648e-18 -6.74053e-30)
(-0.000249343 -2.88886e-07 1.51288e-15 0.000106454 8.4883e-17 -6.03128e-29)
(-0.000248512 -2.89067e-07 1.20901e-15 0.000106099 7.5388e-18 -4.2853e-30)
(-0.000247681 -2.89281e-07 1.20685e-15 0.000105744 -6.81946e-17 3.8764e-29)
(-0.000246849 -2.89472e-07 1.51685e-15 0.000105389 9.36044e-18 -6.65097e-30)
(-0.000246016 -2.89562e-07 1.2157e-15 0.000105034 7.46312e-18 -4.24227e-30)
(-0.000245184 -2.89441e-07 1.52022e-15 0.000104678 -2.87653e-17 2.04389e-29)
(-0.000244352 -2.89261e-07 1.83019e-15 0.000104323 1.11189e-17 -9.48052e-30)
(-0.00024352 -2.89166e-07 1.53007e-15 0.000103968 4.74345e-17 -3.37042e-29)
(-0.000242688 -2.89128e-07 1.53065e-15 0.000103613 9.20266e-18 -6.53887e-30)
(-0.000241856 -2.89121e-07 1.53338e-15 0.000103257 9.1711e-18 -6.51646e-30)
(-0.000241024 -2.8924e-07 1.54039e-15 0.000102902 8.59501e-17 -6.10711e-29)
(-0.00024019 -2.89476e-07 1.23532e-15 0.000102546 8.42327e-17 -4.78806e-29)
(-0.000239357 -2.8962e-07 1.22897e-15 0.00010219 -6.98206e-17 3.96883e-29)
(-0.000238522 -2.89601e-07 1.2375e-15 0.000101834 4.58439e-17 -2.60592e-29)
(-0.000237688 -2.89484e-07 6.18763e-16 0.000101478 3.6052e-18 -1.02466e-30)
(-0.000236854 -2.89336e-07 1.54327e-15 0.000101122 -1.07245e-16 7.62021e-29)
(-0.000236021 -2.8926e-07 1.55225e-15 0.000100766 8.94977e-18 -6.35922e-30)
(-0.000235187 -2.89368e-07 1.24393e-15 0.00010041 7.13453e-18 -4.05553e-30)
(-0.000234353 -2.89457e-07 1.56172e-15 0.000100053 8.67696e-17 -6.16534e-29)
(-0.000233518 -2.89551e-07 1.24816e-15 9.9697e-05 7.08387e-18 -4.02674e-30)
(-0.000232683 -2.89747e-07 1.08984e-15 9.93404e-05 -7.19702e-17 3.57964e-29)
(-0.000231847 -2.8974e-07 1.72199e-15 9.89836e-05 9.67062e-18 -7.55859e-30)
(-0.00023101 -2.89718e-07 1.56805e-15 9.86265e-05 8.75976e-18 -6.22423e-30)
(-0.000230174 -2.89099e-07 1.57065e-15 9.82692e-05 8.72801e-18 -6.20169e-30)
(-0.00022934 -2.88178e-07 1.57324e-15 9.79132e-05 8.69638e-18 -6.17923e-30)
(-0.000228508 -2.8796e-07 1.57988e-15 9.75578e-05 8.74613e-17 -6.21449e-29)
(-0.000227675 -2.88038e-07 1.26272e-15 9.72026e-05 6.90663e-18 -3.926e-30)
(-0.000226843 -2.88201e-07 1.26074e-15 9.68472e-05 -7.21718e-17 4.10248e-29)
(-0.00022601 -2.88369e-07 1.58351e-15 9.64914e-05 8.5701e-18 -6.0895e-30)
(-0.000225177 -2.8867e-07 1.26885e-15 9.61355e-05 6.83079e-18 -3.88291e-30)
(-0.000224343 -2.89135e-07 1.5866e-15 9.57796e-05 -3.12106e-17 2.21763e-29)
(-0.000223509 -2.89446e-07 1.90934e-15 9.54234e-05 1.01703e-17 -8.67181e-30)
(-0.000222674 -2.89652e-07 1.59561e-15 9.50671e-05 4.82871e-17 -3.431e-29)
(-0.00022184 -2.89848e-07 1.59614e-15 9.47108e-05 8.41196e-18 -5.97712e-30)
(-0.000221006 -2.8998e-07 1.59864e-15 9.43546e-05 8.38032e-18 -5.95464e-30)
(-0.000220172 -2.90165e-07 1.60113e-15 9.39989e-05 8.34874e-18 -5.93219e-30)
(-0.000219339 -2.90345e-07 1.6075e-15 9.36433e-05 8.85027e-17 -6.28848e-29)
(-0.000218506 -2.90456e-07 1.28486e-15 9.32875e-05 6.62844e-18 -3.76788e-30)
(-0.000217673 -2.909e-07 1.28876e-15 9.29318e-05 4.68192e-17 -2.66136e-29)