/*--------------------------------*- C++ -*----------------------------------*\
| =========                 |                                                 |
| \\      /  F ield         | foam-extend: Open Source CFD                    |
|  \\    /   O peration     | Version:     4.0                                |
|   \\  /    A nd           | Web:         http://www.foam-extend.org         |
|    \\/     M anipulation  |                                                 |
\*---------------------------------------------------------------------------*/
FoamFile
{
    version     2.0;
    format      ascii;
    class       pointVectorField;
    location    "1";
    object      pointDD;
}
// * * * * * * * * * * * * * * * * * * * * * * * * * * * * * * * * * * * * * //

dimensions      [0 1 0 0 0 0 0];

internalField   nonuniform List<vector> 
83330
(
(-4.38212e-07 -2.15599e-07 3.89937e-21)
(-2.35178e-06 -1.95072e-06 -4.40258e-21)
(-3.91333e-06 -2.89286e-06 -7.26571e-21)
(-5.49825e-06 -3.67904e-06 2.04682e-20)
(-7.05449e-06 -4.40791e-06 1.27533e-20)
(-8.61938e-06 -5.13778e-06 -2.13317e-20)
(-1.01917e-05 -5.9004e-06 -6.74255e-21)
(-1.17766e-05 -6.71759e-06 -2.73252e-23)
(-1.33723e-05 -7.6033e-06 2.93165e-23)
(-1.49785e-05 -8.56765e-06 -2.54462e-23)
(-1.65932e-05 -9.61756e-06 -1.26341e-20)
(-1.82151e-05 -1.07581e-05 2.53283e-21)
(-1.98426e-05 -1.19929e-05 3.0001e-20)
(-2.14745e-05 -1.33245e-05 2.11214e-20)
(-2.31095e-05 -1.47549e-05 -3.49456e-21)
(-2.47468e-05 -1.62854e-05 3.50604e-21)
(-2.63853e-05 -1.79169e-05 1.04005e-20)
(-2.80241e-05 -1.96498e-05 -1.92554e-20)
(-2.9663e-05 -2.1484e-05 -2.85261e-20)
(-3.13007e-05 -2.34211e-05 -1.07647e-22)
(-3.29374e-05 -2.54614e-05 -2.25347e-20)
(-3.45731e-05 -2.76037e-05 -5.1228e-20)
(-3.62072e-05 -2.98479e-05 9.06315e-21)
(-3.78397e-05 -3.21945e-05 6.80663e-20)
(-3.94702e-05 -3.46432e-05 4.76461e-20)
(-4.10986e-05 -3.7194e-05 -4.52558e-22)
(-4.27246e-05 -3.98466e-05 -3.94455e-20)
(-4.43484e-05 -4.26011e-05 6.2007e-21)
(-4.59697e-05 -4.5457e-05 5.9609e-20)
(-4.75885e-05 -4.84144e-05 3.78101e-20)
(-4.92048e-05 -5.1473e-05 3.51338e-20)
(-5.08185e-05 -5.46326e-05 1.46011e-20)
(-5.24296e-05 -5.7893e-05 -2.46255e-21)
(-5.40382e-05 -6.12542e-05 1.49958e-20)
(-5.56441e-05 -6.47158e-05 3.67807e-20)
(-5.72475e-05 -6.82778e-05 6.92805e-20)
(-5.88482e-05 -7.194e-05 -2.80125e-22)
(-6.04463e-05 -7.57022e-05 -5.59459e-20)
(-6.20417e-05 -7.95642e-05 3.54124e-21)
(-6.36346e-05 -8.35259e-05 -2.14403e-20)
(-6.52248e-05 -8.75871e-05 -2.76546e-20)
(-6.68123e-05 -9.17476e-05 2.0375e-20)
(-6.83972e-05 -9.60074e-05 5.858e-20)
(-6.99793e-05 -0.000100366 8.52951e-20)
(-7.15587e-05 -0.000104823 -1.49936e-20)
(-7.31356e-05 -0.000109379 -2.70771e-20)
(-7.47099e-05 -0.000114033 3.81715e-20)
(-7.62815e-05 -0.000118786 5.67075e-20)
(-7.78505e-05 -0.000123637 7.50094e-20)
(-7.94168e-05 -0.000128586 -2.30647e-20)
(-8.09805e-05 -0.000133633 -3.5639e-20)
(-8.25415e-05 -0.000138777 2.62107e-20)
(-8.40999e-05 -0.000144019 4.98533e-20)
(-8.56556e-05 -0.000149358 8.8947e-20)
(-8.72087e-05 -0.000154794 -1.65243e-20)
(-8.87591e-05 -0.000160328 -1.62101e-20)
(-9.03069e-05 -0.000165958 4.52248e-20)
(-9.1852e-05 -0.000171685 2.01519e-20)
(-9.33945e-05 -0.000177508 2.01519e-20)
(-9.49344e-05 -0.000183427 8.60693e-21)
(-9.64716e-05 -0.000189443 4.93211e-20)
(-9.80062e-05 -0.000195555 1.31458e-20)
(-9.95381e-05 -0.000201763 2.84181e-20)
(-0.000101067 -0.000208066 5.0288e-20)
(-0.000102594 -0.000214465 -6.33799e-20)
(-0.000104118 -0.000220959 -2.27393e-20)
(-0.000105639 -0.000227548 -3.91687e-21)
(-0.000107158 -0.000234232 1.38836e-20)
(-0.000108674 -0.000241011 9.85328e-20)
(-0.000110188 -0.000247885 -1.61029e-20)
(-0.000111698 -0.000254853 -5.62638e-20)
(-0.000113206 -0.000261916 9.76187e-22)
(-0.000114712 -0.000269073 6.81639e-20)
(-0.000116215 -0.000276324 6.72182e-20)
(-0.000117715 -0.000283668 -1.18419e-19)
(-0.000119212 -0.000291106 -9.68851e-21)
(-0.000120706 -0.000298637 9.75621e-20)
(-0.000122198 -0.000306263 -2.59465e-20)
(-0.000123687 -0.000313982 3.16579e-20)
(-0.000125174 -0.000321793 1.13922e-20)
(-0.000126659 -0.000329697 -5.83999e-20)
(-0.000128141 -0.000337694 -8.13279e-20)
(-0.00012962 -0.000345783 -4.70379e-20)
(-0.000131096 -0.000353965 9.82742e-20)
(-0.00013257 -0.000362239 1.00318e-19)
(-0.000134041 -0.000370605 -2.03899e-22)
(-0.000135509 -0.000379063 -8.65105e-20)
(-0.000136975 -0.000387612 -5.13452e-20)
(-0.000138438 -0.000396253 1.02124e-19)
(-0.000139899 -0.000404986 1.44518e-19)
(-0.000141357 -0.000413809 3.35517e-20)
(-0.000142812 -0.000422724 -1.37075e-19)
(-0.000144264 -0.000431729 -7.54132e-20)
(-0.000145714 -0.000440826 1.03035e-19)
(-0.000147162 -0.000450012 4.86963e-20)
(-0.000148606 -0.00045929 -9.83006e-21)
(-0.000150048 -0.000468657 3.71326e-20)
(-0.000151487 -0.000478114 3.44217e-20)
(-0.000152924 -0.000487661 1.33923e-20)
(-0.000154358 -0.000497298 2.96272e-20)
(-0.00015579 -0.000507025 2.15977e-20)
(-0.000157218 -0.000516841 -1.6671e-20)
(-0.000158644 -0.000526746 -2.55794e-20)
(-0.000160068 -0.00053674 -9.53056e-22)
(-0.000161489 -0.000546823 3.31885e-20)
(-0.000162907 -0.000556995 4.8016e-20)
(-0.000164323 -0.000567255 -4.08805e-20)
(-0.000165735 -0.000577604 -5.0503e-20)
(-0.000167146 -0.00058804 6.5156e-20)
(-0.000168553 -0.000598565 -1.08352e-20)
(-0.000169958 -0.000609178 -5.49788e-20)
(-0.000171361 -0.000619879 -5.61762e-20)
(-0.00017276 -0.000630667 -1.38049e-20)
(-0.000174157 -0.000641542 1.77142e-19)
(-0.000175552 -0.000652505 1.34712e-19)
(-0.000176944 -0.000663555 1.29779e-20)
(-0.000178333 -0.000674692 -8.67384e-20)
(-0.000179719 -0.000685915 -1.08536e-21)
(-0.000181103 -0.000697225 1.97217e-19)
(-0.000182484 -0.000708622 5.53842e-20)
(-0.000183863 -0.000720104 -4.58586e-20)
(-0.000185239 -0.000731673 5.68944e-20)
(-0.000186612 -0.000743328 5.17584e-20)
(-0.000187983 -0.000755068 -4.74129e-20)
(-0.000189351 -0.000766894 -1.26761e-19)
(-0.000190716 -0.000778806 -9.83567e-20)
(-0.000192079 -0.000790803 1.22744e-19)
(-0.000193439 -0.000802884 8.77207e-20)
(-0.000194796 -0.000815051 -9.07414e-20)
(-0.000196151 -0.000827303 5.05145e-20)
(-0.000197503 -0.000839639 1.42383e-19)
(-0.000198853 -0.000852059 -2.81409e-20)
(-0.0002002 -0.000864564 -1.26663e-19)
(-0.000201544 -0.000877153 1.79241e-20)
(-0.000202885 -0.000889825 1.1544e-19)
(-0.000204224 -0.000902582 7.76763e-20)
(-0.000205561 -0.000915422 -2.0605e-19)
(-0.000206894 -0.000928346 -2.33615e-19)
(-0.000208225 -0.000941353 1.48727e-19)
(-0.000209553 -0.000954443 1.89441e-19)
(-0.000210879 -0.000967615 7.10455e-20)
(-0.000212202 -0.000980871 3.93012e-20)
(-0.000213523 -0.000994209 1.47661e-20)
(-0.00021484 -0.00100763 -1.52369e-20)
(-0.000216155 -0.00102113 -1.13122e-19)
(-0.000217468 -0.00103472 -7.09354e-20)
(-0.000218778 -0.00104839 9.03681e-20)
(-0.000220085 -0.00106213 1.11271e-19)
(-0.000221389 -0.00107596 7.3765e-20)
(-0.000222691 -0.00108988 3.57507e-20)
(-0.00022399 -0.00110387 -9.37555e-20)
(-0.000225287 -0.00111794 -1.39852e-20)
(-0.000226581 -0.0011321 8.70013e-20)
(-0.000227873 -0.00114634 -4.9134e-20)
(-0.000229161 -0.00116065 4.43398e-20)
(-0.000230447 -0.00117505 1.00705e-19)
(-0.000231731 -0.00118953 -1.93951e-19)
(-0.000233012 -0.00120408 -1.70095e-19)
(-0.00023429 -0.00121872 1.87253e-19)
(-0.000235566 -0.00123344 2.95984e-20)
(-0.000236839 -0.00124824 -1.85639e-19)
(-0.000238109 -0.00126311 -1.0643e-19)
(-0.000239377 -0.00127807 -3.09818e-20)
(-0.000240642 -0.0012931 1.40779e-19)
(-0.000241904 -0.00130822 9.98916e-20)
(-0.000243163 -0.00132341 1.48742e-21)
(-0.00024442 -0.00133868 3.04716e-20)
(-0.000245675 -0.00135403 3.03926e-20)
(-0.000246926 -0.00136946 1.383e-19)
(-0.000248175 -0.00138497 2.00452e-19)
(-0.000249422 -0.00140055 2.2891e-20)
(-0.000250665 -0.00141621 -2.21117e-19)
(-0.000251906 -0.00143195 -1.40055e-19)
(-0.000253145 -0.00144777 2.15725e-19)
(-0.00025438 -0.00146366 2.75049e-19)
(-0.000255614 -0.00147963 2.26478e-20)
(-0.000256844 -0.00149568 -2.27363e-19)
(-0.000258072 -0.00151181 -1.42421e-19)
(-0.000259297 -0.00152801 1.15698e-19)
(-0.00026052 -0.00154429 6.78905e-20)
(-0.000261739 -0.00156064 -4.48045e-21)
(-0.000262957 -0.00157708 3.6311e-20)
(-0.000264171 -0.00159358 7.30548e-20)
(-0.000265383 -0.00161017 7.2975e-20)
(-0.000266593 -0.00162682 -5.58882e-21)
(-0.0002678 -0.00164356 2.71631e-20)
(-0.000269004 -0.00166037 -1.29647e-20)
(-0.000270205 -0.00167725 -3.91626e-20)
(-0.000271404 -0.00169421 2.29361e-19)
(-0.0002726 -0.00171125 1.73443e-19)
(-0.000273793 -0.00172836 -8.76179e-20)
(-0.000274984 -0.00174554 6.97419e-20)
(-0.000276172 -0.0017628 1.37115e-19)
(-0.000277358 -0.00178013 2.65175e-20)
(-0.000278541 -0.00179754 1.04097e-19)
(-0.000279721 -0.00181502 2.16763e-20)
(-0.000280899 -0.00183257 -2.51706e-19)
(-0.000282074 -0.0018502 -1.6286e-19)
(-0.000283246 -0.0018679 2.34494e-19)
(-0.000284416 -0.00188567 3.02762e-19)
(-0.000285583 -0.00190352 2.14337e-20)
(-0.000286747 -0.00192144 -2.57631e-19)
(-0.000287909 -0.00193943 -1.6512e-19)
(-0.000289068 -0.0019575 1.21612e-19)
(-0.000290225 -0.00197563 7.67631e-20)
(-0.000291379 -0.00199384 3.24338e-20)
(-0.00029253 -0.00201212 6.84915e-20)
(-0.000293679 -0.00203048 3.2116e-20)
(-0.000294825 -0.0020489 3.20469e-20)
(-0.000295968 -0.0020674 -1.35199e-20)
(-0.000297109 -0.00208597 2.56751e-20)
(-0.000298247 -0.00210461 -1.83647e-20)
(-0.000299382 -0.00212332 -4.92412e-20)
(-0.000300515 -0.0021421 1.636e-19)
(-0.000301645 -0.00216095 1.57179e-19)
(-0.000302772 -0.00217987 3.15295e-20)
(-0.000303897 -0.00219887 1.05637e-19)
(-0.000305019 -0.00221793 5.89035e-20)
(-0.000306139 -0.00223706 -2.26477e-19)
(-0.000307256 -0.00225627 -2.52994e-19)
(-0.00030837 -0.00227554 1.72786e-19)
(-0.000309481 -0.00229488 3.23756e-19)
(-0.00031059 -0.00231429 2.24194e-20)
(-0.000311697 -0.00233377 7.46532e-20)
(-0.0003128 -0.00235332 1.54923e-19)
(-0.000313901 -0.00237294 2.46232e-20)
(-0.000315 -0.00239263 -2.33841e-20)
(-0.000316095 -0.00241239 -1.51433e-19)
(-0.000317188 -0.00243221 -1.83727e-19)
(-0.000318279 -0.0024521 -4.36361e-20)
(-0.000319366 -0.00247206 1.33564e-19)
(-0.000320452 -0.00249209 1.23335e-19)
(-0.000321534 -0.00251219 7.70577e-20)
(-0.000322614 -0.00253235 7.49684e-20)
(-0.000323691 -0.00255258 -1.89678e-20)
(-0.000324765 -0.00257288 2.81852e-20)
(-0.000325837 -0.00259325 -1.95372e-20)
(-0.000326906 -0.00261368 -5.48848e-20)
(-0.000327973 -0.00263418 1.3111e-19)
(-0.000329037 -0.00265475 2.14686e-19)
(-0.000330098 -0.00267538 1.65293e-19)
(-0.000331157 -0.00269608 6.17522e-20)
(-0.000332213 -0.00271684 1.57422e-20)
(-0.000333266 -0.00273767 -2.06482e-19)
(-0.000334317 -0.00275857 -3.30519e-19)
(-0.000335365 -0.00277953 1.38757e-19)
(-0.00033641 -0.00280056 3.52475e-19)
(-0.000337453 -0.00282165 2.10794e-20)
(-0.000338493 -0.00284281 7.64968e-20)
(-0.000339531 -0.00286403 1.64584e-19)
(-0.000340566 -0.00288532 2.31416e-20)
(-0.000341598 -0.00290667 -2.83054e-20)
(-0.000342627 -0.00292809 -1.67633e-19)
(-0.000343654 -0.00294957 -2.04318e-19)
(-0.000344678 -0.00297111 8.64433e-20)
(-0.0003457 -0.00299272 3.20698e-19)
(-0.000346719 -0.00301439 7.25292e-20)
(-0.000347735 -0.00303613 -7.00072e-20)
(-0.000348749 -0.00305793 -2.20932e-20)
(-0.00034976 -0.00307979 -7.27303e-20)
(-0.000350769 -0.00310172 1.24101e-19)
(-0.000351774 -0.00312371 6.91805e-20)
(-0.000352777 -0.00314576 -1.69983e-19)
(-0.000353778 -0.00316787 8.30959e-20)
(-0.000354776 -0.00319005 2.78101e-19)
(-0.000355771 -0.00321229 2.25636e-19)
(-0.000356764 -0.00323459 1.08347e-20)
(-0.000357753 -0.00325695 -2.33949e-19)
(-0.000358741 -0.00327938 -2.71573e-19)
(-0.000359725 -0.00330186 -1.1493e-19)
(-0.000360707 -0.00332441 1.85392e-19)
(-0.000361687 -0.00334702 2.28331e-19)
(-0.000362663 -0.00336969 7.76429e-20)
(-0.000363637 -0.00339242 1.28453e-19)
(-0.000364609 -0.00341522 1.2295e-19)
(-0.000365578 -0.00343807 2.16625e-20)
(-0.000366544 -0.00346098 1.44203e-20)
(-0.000367507 -0.00348396 -1.39086e-19)
(-0.000368468 -0.00350699 -2.78625e-19)
(-0.000369426 -0.00353008 -6.67122e-20)
(-0.000370382 -0.00355324 1.88345e-19)
(-0.000371335 -0.00357645 7.98279e-20)
(-0.000372285 -0.00359972 2.84687e-20)
(-0.000373233 -0.00362305 2.30592e-19)
(-0.000374178 -0.00364645 1.21359e-19)
(-0.00037512 -0.0036699 -2.92459e-20)
(-0.00037606 -0.0036934 -8.53846e-20)
(-0.000376997 -0.00371697 -1.85153e-19)
(-0.000377931 -0.0037406 1.89386e-19)
(-0.000378863 -0.00376428 2.88996e-19)
(-0.000379792 -0.00378802 -7.79909e-20)
(-0.000380719 -0.00381182 -8.32425e-20)
(-0.000381642 -0.00383568 -3.24492e-20)
(-0.000382564 -0.0038596 -1.87052e-19)
(-0.000383482 -0.00388357 -1.27179e-19)
(-0.000384398 -0.0039076 1.92897e-19)
(-0.000385311 -0.00393169 2.39604e-19)
(-0.000386222 -0.00395584 7.90662e-20)
(-0.00038713 -0.00398004 1.33114e-19)
(-0.000388035 -0.0040043 1.27981e-19)
(-0.000388938 -0.00402861 2.01811e-20)
(-0.000389838 -0.00405298 1.67822e-20)
(-0.000390735 -0.00407741 -1.4638e-19)
(-0.00039163 -0.00410189 -2.99886e-19)
(-0.000392522 -0.00412643 -7.56091e-20)
(-0.000393411 -0.00415103 1.95583e-19)
(-0.000394298 -0.00417568 8.10543e-20)
(-0.000395182 -0.00420038 2.64859e-20)
(-0.000396064 -0.00422514 2.41653e-19)
(-0.000396943 -0.00424996 1.28098e-19)
(-0.000397819 -0.00427483 -3.2369e-20)
(-0.000398692 -0.00429976 -9.30149e-20)
(-0.000399563 -0.00432474 -1.99408e-19)
(-0.000400432 -0.00434977 1.96499e-19)
(-0.000401297 -0.00437486 3.02735e-19)
(-0.00040216 -0.0044 -8.61637e-20)
(-0.000403021 -0.0044252 -9.1045e-20)
(-0.000403878 -0.00445045 -3.70105e-20)
(-0.000404733 -0.00447575 -2.012e-19)
(-0.000405586 -0.00450111 -8.2317e-20)
(-0.000406436 -0.00452652 2.59299e-19)
(-0.000407283 -0.00455198 1.44534e-19)
(-0.000408127 -0.0045775 -2.20426e-20)
(-0.000408969 -0.00460307 9.14072e-20)
(-0.000409808 -0.00462869 8.50437e-20)
(-0.000410645 -0.00465436 2.49413e-20)
(-0.000411479 -0.00468009 2.48625e-20)
(-0.00041231 -0.00470586 2.94232e-20)
(-0.000413139 -0.00473169 3.24274e-20)
(-0.000413965 -0.00475758 2.03532e-19)
(-0.000414788 -0.00478351 1.9118e-19)
(-0.000415609 -0.00480949 -1.55103e-19)
(-0.000416427 -0.00483553 -1.41428e-19)
(-0.000417242 -0.00486161 2.88732e-20)
(-0.000418055 -0.00488775 1.43554e-19)
(-0.000418865 -0.00491394 1.43474e-19)
(-0.000419672 -0.00494018 -9.41814e-20)
(-0.000420477 -0.00496647 -8.97688e-20)
(-0.000421279 -0.00499281 3.13874e-20)
(-0.000422078 -0.0050192 2.97924e-20)
(-0.000422875 -0.00504564 2.96943e-20)
(-0.000423669 -0.00507213 1.47452e-19)
(-0.000424461 -0.00509866 1.44409e-19)
(-0.00042525 -0.00512525 -9.47744e-20)
(-0.000426036 -0.00515189 -9.19281e-20)
(-0.00042682 -0.00517858 2.62867e-20)
(-0.000427601 -0.00520531 -3.32845e-20)
(-0.000428379 -0.00523209 -2.75724e-20)
(-0.000429155 -0.00525893 9.14895e-20)
(-0.000429928 -0.00528581 8.84954e-20)
(-0.000430698 -0.00531274 2.8709e-20)
(-0.000431466 -0.00533971 1.48627e-19)
(-0.000432231 -0.00536674 2.6591e-19)
(-0.000432994 -0.00539381 2.25189e-20)
(-0.000433754 -0.00542093 -3.74634e-20)
(-0.000434511 -0.0054481 7.72641e-20)
(-0.000435265 -0.00547531 -1.61937e-19)
(-0.000436017 -0.00550258 -1.53586e-19)
(-0.000436767 -0.00552989 2.51318e-20)
(-0.000437513 -0.00555724 1.46725e-19)
(-0.000438257 -0.00558464 1.46646e-19)
(-0.000438999 -0.00561209 -1.01384e-19)
(-0.000439737 -0.00563959 -9.73426e-20)
(-0.000440473 -0.00566713 2.87977e-20)
(-0.000441207 -0.00569472 2.73249e-20)
(-0.000441937 -0.00572235 2.72259e-20)
(-0.000442665 -0.00575003 1.50246e-19)
(-0.000443391 -0.00577775 1.4745e-19)
(-0.000444114 -0.00580552 -1.01976e-19)
(-0.000444834 -0.00583333 -9.93772e-20)
(-0.000445551 -0.00586119 2.40642e-20)
(-0.000446266 -0.0058891 -3.8093e-20)
(-0.000446978 -0.00591704 -3.2875e-20)
(-0.000447688 -0.00594504 9.13398e-20)
(-0.000448395 -0.00597307 8.85924e-20)
(-0.000449099 -0.00600116 2.62382e-20)
(-0.000449801 -0.00602928 2.61394e-20)
(-0.0004505 -0.00605745 1.5133e-19)
(-0.000451196 -0.00608566 1.48642e-19)
(-0.00045189 -0.00611392 8.35119e-20)
(-0.000452581 -0.00614222 7.82939e-20)
(-0.000453269 -0.00617056 -1.71148e-19)
(-0.000453955 -0.00619894 -1.63539e-19)
(-0.000454638 -0.00622737 2.29077e-20)
(-0.000455318 -0.00625584 1.49433e-19)
(-0.000455996 -0.00628436 1.49354e-19)
(-0.000456671 -0.00631291 -1.08134e-19)
(-0.000457344 -0.00634151 -1.04462e-19)
(-0.000458013 -0.00637015 2.24678e-20)
(-0.000458681 -0.00639883 1.86383e-20)
(-0.000459345 -0.00642755 2.22749e-20)
(-0.000460007 -0.00645632 1.5258e-19)
(-0.000460666 -0.00648512 1.5003e-19)
(-0.000461323 -0.00651397 -1.0872e-19)
(-0.000461977 -0.00654286 -1.06368e-19)
(-0.000462628 -0.00657178 2.18411e-20)
(-0.000463277 -0.00660075 -4.26715e-20)
(-0.000463923 -0.00662976 -3.79465e-20)
(-0.000464566 -0.00665881 9.09618e-20)
(-0.000465207 -0.0066879 8.84608e-20)
(-0.000465845 -0.00671703 2.15708e-19)
(-0.000466481 -0.0067462 1.47208e-19)
(-0.000467113 -0.00677541 -1.07423e-19)
(-0.000467744 -0.00680466 2.12278e-20)
(-0.000468371 -0.00683395 1.4651e-19)
(-0.000468996 -0.00686328 8.02559e-20)
(-0.000469618 -0.00689264 -1.78508e-19)
(-0.000470238 -0.00692205 -1.72801e-19)
(-0.000470855 -0.00695149 2.29786e-20)
(-0.000471469 -0.00698097 1.53978e-19)
(-0.000472081 -0.00701049 1.49333e-19)
(-0.00047269 -0.00704005 -1.16695e-19)
(-0.000473296 -0.00706965 -1.1112e-19)
(-0.0004739 -0.00709928 2.02464e-20)
(-0.000474501 -0.00712895 1.67869e-20)
(-0.000475099 -0.00715866 2.0053e-20)
(-0.000475695 -0.00718841 2.21873e-20)
(-0.000476288 -0.0072182 2.31901e-20)
(-0.000476878 -0.00724802 1.98001e-20)
(-0.000477466 -0.00727787 1.85995e-20)
(-0.000478051 -0.00730777 1.96176e-20)
(-0.000478634 -0.0073377 1.9519e-20)
(-0.000479214 -0.00736767 2.26717e-20)
(-0.000479791 -0.00739767 2.25728e-20)
(-0.000480365 -0.00742771 2.13966e-20)
(-0.000480937 -0.00745778 2.12977e-20)
(-0.000481506 -0.0074879 -4.78549e-20)
(-0.000482073 -0.00751804 8.81861e-20)
(-0.000482637 -0.00754822 2.22141e-19)
(-0.000483198 -0.00757844 1.50991e-19)
(-0.000483757 -0.00760869 2.14167e-19)
(-0.000484313 -0.00763898 -1.22396e-19)
(-0.000484866 -0.0076693 -3.86605e-19)
(-0.000485417 -0.00769966 -4.78482e-20)
(-0.000485965 -0.00773005 2.90558e-19)
(-0.000486511 -0.00776047 2.17913e-19)
(-0.000487053 -0.00779093 -2.57698e-19)
(-0.000487594 -0.00782142 -2.50726e-19)
(-0.000488131 -0.00785195 8.68807e-20)
(-0.000488666 -0.00788251 8.47755e-20)
(-0.000489198 -0.0079131 1.685e-20)
(-0.000489728 -0.00794373 1.52905e-19)
(-0.000490254 -0.00797438 1.53815e-19)
(-0.000490779 -0.00800508 -1.21804e-19)
(-0.0004913 -0.0080358 -1.88241e-19)
(-0.000491819 -0.00806656 -4.99382e-20)
(-0.000492335 -0.00809735 2.23572e-19)
(-0.000492849 -0.00812817 2.22529e-19)
(-0.00049336 -0.00815902 -1.20044e-19)
(-0.000493868 -0.00818991 -1.18236e-19)
(-0.000494374 -0.00822083 1.69477e-20)
(-0.000494877 -0.00825177 -5.19413e-20)
(-0.000495377 -0.00828275 8.94134e-20)
(-0.000495875 -0.00831377 2.25185e-19)
(-0.00049637 -0.00834481 1.52668e-19)
(-0.000496862 -0.00837588 2.18134e-19)
(-0.000497352 -0.00840698 -1.27472e-19)
(-0.000497839 -0.00843812 -3.9952e-19)
(-0.000498324 -0.00846928 -5.38022e-20)
(-0.000498805 -0.00850048 8.36144e-20)
(-0.000499285 -0.0085317 1.42687e-20)
(-0.000499761 -0.00856296 -5.52761e-20)
(-0.000500235 -0.00859424 -5.18375e-20)
(-0.000500706 -0.00862556 8.62714e-20)
(-0.000501175 -0.0086569 8.44136e-20)
(-0.000501641 -0.00868827 1.47476e-20)
(-0.000502104 -0.00871967 1.54229e-19)
(-0.000502564 -0.0087511 1.55014e-19)
(-0.000503022 -0.00878256 -1.27048e-19)
(-0.000503478 -0.00881405 -1.27972e-19)
(-0.00050393 -0.00884557 1.26332e-20)
(-0.00050438 -0.00887711 1.53609e-19)
(-0.000504828 -0.00890868 1.5353e-19)
(-0.000505273 -0.00894028 -1.25566e-19)
(-0.000505715 -0.00897191 -1.24005e-19)
(-0.000506154 -0.00900357 1.47228e-20)
(-0.000506591 -0.00903525 -5.57868e-20)
(-0.000507025 -0.00906696 8.82973e-20)
(-0.000507456 -0.0090987 2.27539e-19)
(-0.000507885 -0.00913046 1.53887e-19)
(-0.000508311 -0.00916225 2.21413e-19)
(-0.000508735 -0.00919407 -1.32087e-19)
(-0.000509156 -0.00922591 -4.11053e-19)
(-0.000509574 -0.00925778 -5.5927e-20)
(-0.00050999 -0.00928968 8.47448e-20)
(-0.000510402 -0.0093216 1.1525e-20)
(-0.000510813 -0.00935355 -5.9549e-20)
(-0.00051122 -0.00938552 -5.58389e-20)
(-0.000511625 -0.00941752 8.54336e-20)
(-0.000512028 -0.00944954 8.38232e-20)
(-0.000512427 -0.00948159 1.33878e-20)
(-0.000512824 -0.00951366 1.3289e-20)
(-0.000513219 -0.00954576 1.46722e-20)
(-0.000513611 -0.00957789 1.23947e-20)
(-0.000514 -0.00961003 1.01319e-20)
(-0.000514386 -0.00964221 1.07788e-20)
(-0.00051477 -0.0096744 1.54506e-19)
(-0.000515151 -0.00970662 1.54426e-19)
(-0.000515529 -0.00973886 -1.3063e-19)
(-0.000515905 -0.00977113 1.40828e-20)
(-0.000516278 -0.00980342 1.54513e-19)
(-0.000516649 -0.00983573 -2.05765e-19)
(-0.000517017 -0.00986807 -5.8029e-20)
(-0.000517382 -0.00990043 2.27172e-19)
(-0.000517745 -0.00993281 1.52614e-19)
(-0.000518104 -0.00996522 8.06609e-20)
(-0.000518462 -0.00999765 -2.7826e-19)
(-0.000518816 -0.0100301 -2.73712e-19)
(-0.000519168 -0.0100626 8.65513e-20)
(-0.000519517 -0.0100951 8.51386e-20)
(-0.000519864 -0.0101276 1.0963e-20)
(-0.000520208 -0.0101601 1.55453e-19)
(-0.000520549 -0.0101927 2.99434e-19)
(-0.000520888 -0.0102252 6.83437e-21)
(-0.000521224 -0.0102579 -2.80289e-19)
(-0.000521557 -0.0102905 -1.32476e-19)
(-0.000521888 -0.0103231 1.22951e-20)
(-0.000522216 -0.0103558 1.5734e-19)
(-0.000522542 -0.0103885 1.54229e-19)
(-0.000522864 -0.0104212 -1.38129e-19)
(-0.000523185 -0.0104539 -1.36402e-19)
(-0.000523502 -0.0104866 9.43981e-21)
(-0.000523817 -0.0105194 1.11083e-20)
(-0.000524129 -0.0105522 1.10291e-20)
(-0.000524438 -0.010585 1.03474e-20)
(-0.000524745 -0.0106178 1.02681e-20)
(-0.000525049 -0.0106506 9.04348e-21)
(-0.000525351 -0.0106835 1.56648e-19)
(-0.00052565 -0.0107164 1.5491e-19)
(-0.000525946 -0.0107493 8.02344e-20)
(-0.00052624 -0.0107822 7.96419e-20)
(-0.00052653 -0.0108151 -2.11953e-19)
(-0.000526819 -0.0108481 -2.08262e-19)
(-0.000527104 -0.010881 1.11432e-20)
(-0.000527387 -0.010914 1.05109e-20)
(-0.000527667 -0.010947 8.85741e-21)
(-0.000527945 -0.0109801 1.53946e-19)
(-0.00052822 -0.0110131 3.01696e-19)
(-0.000528492 -0.0110462 7.01497e-21)
(-0.000528762 -0.0110792 -2.87328e-19)
(-0.000529029 -0.0111123 -1.38033e-19)
(-0.000529293 -0.0111454 8.84076e-21)
(-0.000529555 -0.0111786 1.54947e-19)
(-0.000529814 -0.0112117 1.53432e-19)
(-0.00053007 -0.0112448 -2.1479e-19)
(-0.000530324 -0.011278 -2.12965e-19)
(-0.000530575 -0.0113112 8.16537e-20)
(-0.000530824 -0.0113444 8.24822e-20)
(-0.00053107 -0.0113776 8.67651e-21)
(-0.000531313 -0.0114109 1.55776e-19)
(-0.000531553 -0.0114441 1.54809e-19)
(-0.000531791 -0.0114774 -1.41614e-19)
(-0.000532026 -0.0115107 8.35079e-21)
(-0.000532259 -0.011544 1.55202e-19)
(-0.000532489 -0.0115773 -1.41166e-19)
(-0.000532716 -0.0116106 8.16795e-20)
(-0.000532941 -0.0116439 2.27077e-19)
(-0.000533162 -0.0116773 -2.16092e-19)
(-0.000533382 -0.0117106 -2.13705e-19)
(-0.000533598 -0.011744 8.03748e-21)
(-0.000533812 -0.0117774 6.75494e-21)
(-0.000534024 -0.0118108 1.53893e-19)
(-0.000534232 -0.0118442 3.03055e-19)
(-0.000534438 -0.0118777 2.28081e-19)
(-0.000534642 -0.0119111 -7.05458e-20)
(-0.000534842 -0.0119446 -3.66693e-19)
(-0.00053504 -0.011978 -2.17073e-19)
(-0.000535236 -0.0120115 1.54534e-19)
(-0.000535429 -0.012045 1.5339e-19)
(-0.000535619 -0.0120785 -1.44623e-19)
(-0.000535806 -0.012112 -1.43638e-19)
(-0.000535991 -0.0121455 5.47748e-21)
(-0.000536173 -0.0121791 6.40275e-21)
(-0.000536352 -0.0122126 6.32331e-21)
(-0.000536529 -0.0122462 1.54985e-19)
(-0.000536703 -0.0122798 1.54266e-19)
(-0.000536875 -0.0123134 -1.44751e-19)
(-0.000537043 -0.012347 5.97805e-21)
(-0.00053721 -0.0123806 1.5448e-19)
(-0.000537373 -0.0124142 -1.44496e-19)
(-0.000537534 -0.0124478 8.00943e-20)
(-0.000537692 -0.0124814 3.76998e-19)
(-0.000537848 -0.0125151 1.52289e-19)
(-0.000538 -0.0125487 3.67384e-21)
(-0.000538151 -0.0125824 -2.20699e-19)
(-0.000538298 -0.0126161 -3.70081e-19)
(-0.000538443 -0.0126498 4.06082e-21)
(-0.000538585 -0.0126834 3.03487e-19)
(-0.000538725 -0.0127171 3.58309e-21)
(-0.000538862 -0.0127509 -7.15497e-20)
(-0.000538996 -0.0127846 7.8592e-20)
(-0.000539127 -0.0128183 -2.21073e-19)
(-0.000539256 -0.012852 -7.10601e-20)
(-0.000539383 -0.0128858 1.52885e-19)
(-0.000539506 -0.0129195 -1.47182e-19)
(-0.000539627 -0.0129533 -1.46569e-19)
(-0.000539745 -0.012987 3.49212e-21)
(-0.000539861 -0.0130208 4.04523e-21)
(-0.000539974 -0.0130546 3.96595e-21)
(-0.000540084 -0.0130884 1.53729e-19)
(-0.000540192 -0.0131222 1.53258e-19)
(-0.000540297 -0.013156 -1.47428e-19)
(-0.000540399 -0.0131898 2.28841e-19)
(-0.000540499 -0.0132236 3.77988e-19)
(-0.000540596 -0.0132574 -3.73582e-19)
(-0.00054069 -0.0132912 -1.47397e-19)
(-0.000540782 -0.0133251 3.77657e-19)
(-0.000540871 -0.0133589 -7.35369e-20)
(-0.000540957 -0.0133928 -3.73216e-19)
(-0.000541041 -0.0134266 -1.4754e-19)
(-0.000541122 -0.0134604 2.38065e-21)
(-0.0005412 -0.0134943 1.52539e-19)
(-0.000541276 -0.0135282 3.02995e-19)
(-0.000541349 -0.013562 1.86527e-21)
(-0.00054142 -0.0135959 -7.35303e-20)
(-0.000541487 -0.0136298 7.70827e-20)
(-0.000541553 -0.0136637 -2.23926e-19)
(-0.000541615 -0.0136975 -7.33924e-20)
(-0.000541675 -0.0137314 1.5192e-19)
(-0.000541732 -0.0137653 -1.49274e-19)
(-0.000541787 -0.0137992 -1.4903e-19)
(-0.000541839 -0.0138331 1.51743e-21)
(-0.000541889 -0.013867 1.70439e-21)
(-0.000541936 -0.0139009 1.62924e-21)
(-0.00054198 -0.0139348 1.44912e-21)
(-0.000542022 -0.0139687 1.37654e-21)
(-0.000542062 -0.0140026 1.14864e-21)
(-0.000542099 -0.0140366 1.51897e-19)
(-0.000542134 -0.0140705 1.51708e-19)
(-0.000542167 -0.0141044 -1.49701e-19)
(-0.000542198 -0.0141383 7.63391e-20)
(-0.000542227 -0.0141722 3.77271e-19)
(-0.000542254 -0.0142062 -7.48648e-20)
(-0.00054228 -0.0142401 -3.75973e-19)
(-0.000542304 -0.014274 -1.49911e-19)
(-0.000542327 -0.014308 6.49013e-22)
(-0.00054235 -0.0143419 1.51326e-19)
(-0.000542372 -0.0143759 3.02108e-19)
(-0.000542393 -0.0144098 3.98849e-22)
(-0.000542418 -0.0144438 4.53644e-19)
(-0.000542432 -0.0144778 -3.62289e-18)
(-2.3256e-22 -1.29157e-22 0)
(-1.85718e-06 -1.58026e-06 0)
(-3.52565e-06 -2.54165e-06 0)
(-5.13171e-06 -3.33906e-06 0)
(-6.69247e-06 -4.07329e-06 0)
(-8.24501e-06 -4.80369e-06 0)
(-9.79424e-06 -5.5656e-06 0)
(-1.13481e-05 -6.38126e-06 0)
(-1.29072e-05 -7.26537e-06 0)
(-1.44727e-05 -8.22818e-06 0)
(-1.60437e-05 -9.27676e-06 0)
(-1.76197e-05 -1.04162e-05 0)
(-1.91998e-05 -1.16501e-05 0)
(-2.07831e-05 -1.29811e-05 0)
(-2.23687e-05 -1.4411e-05 0)
(-2.3956e-05 -1.59411e-05 0)
(-2.5544e-05 -1.75725e-05 0)
(-2.71324e-05 -1.93054e-05 0)
(-2.87206e-05 -2.11397e-05 0)
(-3.03069e-05 -2.3077e-05 0)
(-3.18921e-05 -2.51177e-05 0)
(-3.34769e-05 -2.72602e-05 0)
(-3.506e-05 -2.95047e-05 0)
(-3.66414e-05 -3.18517e-05 0)
(-3.82209e-05 -3.43008e-05 0)
(-3.97983e-05 -3.6852e-05 0)
(-4.13735e-05 -3.95052e-05 0)
(-4.29465e-05 -4.22601e-05 0)
(-4.4517e-05 -4.51166e-05 0)
(-4.60852e-05 -4.80745e-05 0)
(-4.76509e-05 -5.11336e-05 0)
(-4.92142e-05 -5.42937e-05 0)
(-5.0775e-05 -5.75548e-05 0)
(-5.23332e-05 -6.09164e-05 0)
(-5.3889e-05 -6.43787e-05 0)
(-5.54422e-05 -6.79412e-05 0)
(-5.69928e-05 -7.16039e-05 0)
(-5.8541e-05 -7.53666e-05 0)
(-6.00866e-05 -7.92292e-05 0)
(-6.16296e-05 -8.31914e-05 0)
(-6.31701e-05 -8.72532e-05 0)
(-6.4708e-05 -9.14143e-05 0)
(-6.62433e-05 -9.56746e-05 0)
(-6.7776e-05 -0.000100034 0)
(-6.93062e-05 -0.000104492 0)
(-7.08338e-05 -0.000109048 0)
(-7.23589e-05 -0.000113703 0)
(-7.38814e-05 -0.000118456 0)
(-7.54013e-05 -0.000123308 0)
(-7.69187e-05 -0.000128257 0)
(-7.84335e-05 -0.000133304 0)
(-7.99457e-05 -0.000138449 0)
(-8.14554e-05 -0.000143692 0)
(-8.29625e-05 -0.000149031 0)
(-8.4467e-05 -0.000154468 0)
(-8.5969e-05 -0.000160002 0)
(-8.74684e-05 -0.000165633 0)
(-8.89653e-05 -0.00017136 0)
(-9.04596e-05 -0.000177184 0)
(-9.19513e-05 -0.000183104 0)
(-9.34405e-05 -0.00018912 0)
(-9.49271e-05 -0.000195233 0)
(-9.64111e-05 -0.000201441 0)
(-9.78926e-05 -0.000207745 0)
(-9.93716e-05 -0.000214144 0)
(-0.000100848 -0.000220639 0)
(-0.000102322 -0.000227228 0)
(-0.000103793 -0.000233913 0)
(-0.000105262 -0.000240693 0)
(-0.000106728 -0.000247567 0)
(-0.000108191 -0.000254536 0)
(-0.000109652 -0.000261599 0)
(-0.000111111 -0.000268757 0)
(-0.000112567 -0.000276008 0)
(-0.00011402 -0.000283353 0)
(-0.00011547 -0.000290792 0)
(-0.000116918 -0.000298324 0)
(-0.000118362 -0.000305949 0)
(-0.000119806 -0.000313669 0)
(-0.000121246 -0.000321481 0)
(-0.000122684 -0.000329385 0)
(-0.00012412 -0.000337383 0)
(-0.000125553 -0.000345473 0)
(-0.000126983 -0.000353655 0)
(-0.00012841 -0.00036193 0)
(-0.000129836 -0.000370296 0)
(-0.000131258 -0.000378754 0)
(-0.000132678 -0.000387305 0)
(-0.000134096 -0.000395946 0)
(-0.00013551 -0.000404679 0)
(-0.000136923 -0.000413503 0)
(-0.000138332 -0.000422418 0)
(-0.00013974 -0.000431424 0)
(-0.000141144 -0.000440521 0)
(-0.000142546 -0.000449709 0)
(-0.000143946 -0.000458986 0)
(-0.000145343 -0.000468354 0)
(-0.000146737 -0.000477812 0)
(-0.000148129 -0.00048736 0)
(-0.000149518 -0.000496997 0)
(-0.000150905 -0.000506724 0)
(-0.000152289 -0.000516541 0)
(-0.00015367 -0.000526447 0)
(-0.000155049 -0.000536441 0)
(-0.000156426 -0.000546525 0)
(-0.0001578 -0.000556697 0)
(-0.000159171 -0.000566958 0)
(-0.00016054 -0.000577307 0)
(-0.000161906 -0.000587744 0)
(-0.00016327 -0.00059827 0)
(-0.000164631 -0.000608883 0)
(-0.000165989 -0.000619584 0)
(-0.000167345 -0.000630373 0)
(-0.000168699 -0.000641249 0)
(-0.00017005 -0.000652212 0)
(-0.000171398 -0.000663263 0)
(-0.000172744 -0.0006744 0)
(-0.000174087 -0.000685624 0)
(-0.000175427 -0.000696935 0)
(-0.000176765 -0.000708332 0)
(-0.000178101 -0.000719815 0)
(-0.000179434 -0.000731384 0)
(-0.000180764 -0.00074304 0)
(-0.000182092 -0.000754781 0)
(-0.000183417 -0.000766607 0)
(-0.00018474 -0.000778519 0)
(-0.00018606 -0.000790516 0)
(-0.000187378 -0.000802599 0)
(-0.000188693 -0.000814766 0)
(-0.000190005 -0.000827018 0)
(-0.000191315 -0.000839355 0)
(-0.000192622 -0.000851776 0)
(-0.000193927 -0.000864281 0)
(-0.000195229 -0.000876871 0)
(-0.000196529 -0.000889544 0)
(-0.000197826 -0.000902301 0)
(-0.00019912 -0.000915142 0)
(-0.000200412 -0.000928066 0)