/*--------------------------------*- C++ -*----------------------------------*\
| =========                 |                                                 |
| \\      /  F ield         | foam-extend: Open Source CFD                    |
|  \\    /   O peration     | Version:     4.0                                |
|   \\  /    A nd           | Web:         http://www.foam-extend.org         |
|    \\/     M anipulation  |                                                 |
\*---------------------------------------------------------------------------*/
FoamFile
{
    version     2.0;
    format      ascii;
    class       volScalarField;
    location    "1";
    object      sigmaEq;
}
// * * * * * * * * * * * * * * * * * * * * * * * * * * * * * * * * * * * * * //

dimensions      [1 -1 -2 0 0 0 0];

internalField   nonuniform List<scalar> 
40960
(
1.24827e+08
1.05146e+08
1.00829e+08
9.77696e+07
9.75553e+07
9.75694e+07
9.80595e+07
9.85371e+07
9.90435e+07
9.94783e+07
9.98548e+07
1.00155e+08
1.00391e+08
1.00562e+08
1.00681e+08
1.00745e+08
1.00764e+08
1.00764e+08
1.00679e+08
1.00606e+08
1.00555e+08
1.00456e+08
1.00358e+08
1.00231e+08
1.00102e+08
9.99615e+07
9.98172e+07
9.96679e+07
9.95156e+07
9.93606e+07
9.92037e+07
9.90454e+07
9.8886e+07
9.87259e+07
9.85652e+07
9.84041e+07
9.82429e+07
9.80814e+07
9.79198e+07
9.77576e+07
9.75943e+07
9.74305e+07
9.7263e+07
9.70977e+07
9.69402e+07
9.67805e+07
9.66174e+07
9.64546e+07
9.62909e+07
9.61276e+07
9.59644e+07
9.58015e+07
9.56387e+07
9.5476e+07
9.53135e+07
9.5151e+07
9.49885e+07
9.48261e+07
9.46637e+07
9.45012e+07
9.43388e+07
9.41762e+07
9.40137e+07
9.38512e+07
9.36887e+07
9.35262e+07
9.33639e+07
9.32013e+07
9.3039e+07
9.28759e+07
9.2714e+07
9.25481e+07
9.23875e+07
9.22106e+07
9.20465e+07
9.18528e+07
9.16978e+07
9.1579e+07
9.14087e+07
9.12562e+07
9.10986e+07
9.09271e+07
9.07617e+07
9.05976e+07
9.04349e+07
9.02728e+07
9.01109e+07
8.99488e+07
8.97862e+07
8.96234e+07
8.94605e+07
8.92976e+07
8.91351e+07
8.89723e+07
8.88102e+07
8.86465e+07
8.84828e+07
8.83229e+07
8.81607e+07
8.79971e+07
8.78347e+07
8.76718e+07
8.75092e+07
8.73468e+07
8.71845e+07
8.70224e+07
8.68603e+07
8.66982e+07
8.6536e+07
8.63736e+07
8.62109e+07
8.60481e+07
8.58854e+07
8.57228e+07
8.55603e+07
8.53979e+07
8.52356e+07
8.50734e+07
8.49111e+07
8.47489e+07
8.45865e+07
8.44242e+07
8.42617e+07
8.40992e+07
8.39366e+07
8.3774e+07
8.36114e+07
8.34489e+07
8.32863e+07
8.31237e+07
8.29611e+07
8.27985e+07
8.26358e+07
8.24731e+07
8.23105e+07
8.21478e+07
8.19852e+07
8.18226e+07
8.166e+07
8.14974e+07
8.13347e+07
8.11719e+07
8.10092e+07
8.08464e+07
8.06837e+07
8.05209e+07
8.03585e+07
8.01961e+07
8.00344e+07
7.98734e+07
7.97126e+07
7.95559e+07
7.93912e+07
7.92251e+07
7.90682e+07
7.89139e+07
7.8751e+07
7.85785e+07
7.84088e+07
7.82514e+07
7.80924e+07
7.79253e+07
7.77614e+07
7.75971e+07
7.74337e+07
7.72708e+07
7.7108e+07
7.69454e+07
7.67829e+07
7.66204e+07
7.64578e+07
7.62952e+07
7.61326e+07
7.597e+07
7.58072e+07
7.56444e+07
7.54814e+07
7.53183e+07
7.51558e+07
7.49934e+07
7.48328e+07
7.46734e+07
7.45099e+07
7.43452e+07
7.41825e+07
7.40201e+07
7.38576e+07
7.36949e+07
7.35322e+07
7.33697e+07
7.32073e+07
7.3045e+07
7.28828e+07
7.27206e+07
7.25583e+07
7.23961e+07
7.22339e+07
7.20717e+07
7.19096e+07
7.17474e+07
7.15852e+07
7.14229e+07
7.12607e+07
7.10984e+07
7.09361e+07
7.07737e+07
7.06113e+07
7.04487e+07
7.0286e+07
7.01234e+07
6.99608e+07
6.97986e+07
6.96368e+07
6.94749e+07
6.93127e+07
6.91497e+07
6.89862e+07
6.88209e+07
6.86569e+07
6.84969e+07
6.83359e+07
6.81732e+07
6.80104e+07
6.7847e+07
6.76837e+07
6.75205e+07
6.73575e+07
6.71947e+07
6.7032e+07
6.68693e+07
6.67066e+07
6.65439e+07
6.63813e+07
6.62187e+07
6.6056e+07
6.58934e+07
6.57309e+07
6.55683e+07
6.54057e+07
6.52431e+07
6.50806e+07
6.49181e+07
6.47555e+07
6.45931e+07
6.44306e+07
6.4268e+07
6.41054e+07
6.39426e+07
6.37798e+07
6.36169e+07
6.3454e+07
6.32913e+07
6.31287e+07
6.29663e+07
6.2804e+07
6.26421e+07
6.24802e+07
6.23184e+07
6.21563e+07
6.19933e+07
6.18304e+07
6.16676e+07
6.15049e+07
6.13424e+07
6.118e+07
6.10177e+07
6.08554e+07
6.06932e+07
6.05311e+07
6.03689e+07
6.02067e+07
6.00443e+07
5.98818e+07
5.97192e+07
5.95567e+07
5.93941e+07
5.92315e+07
5.90689e+07
5.89063e+07
5.87436e+07
5.85809e+07
5.84183e+07
5.82558e+07
5.80935e+07
5.79311e+07
5.77687e+07
5.76061e+07
5.74435e+07
5.72808e+07
5.7118e+07
5.69551e+07
5.67922e+07
5.66294e+07
5.64666e+07
5.63042e+07
5.6142e+07
5.59803e+07
5.58179e+07
5.56539e+07
5.54905e+07
5.53277e+07
5.51653e+07
5.50031e+07
5.48409e+07
5.46787e+07
5.45167e+07
5.43548e+07
5.41934e+07
5.40321e+07
5.3869e+07
5.37044e+07
5.35397e+07
5.33773e+07
5.32161e+07
5.30541e+07
5.28921e+07
5.27296e+07
5.25668e+07
5.24039e+07
5.22408e+07
5.20779e+07
5.19151e+07
5.17524e+07
5.15899e+07
5.14275e+07
5.12653e+07
5.11029e+07
5.09407e+07
5.0778e+07
5.0615e+07
5.04516e+07
5.02856e+07
5.01243e+07
4.99643e+07
4.97982e+07
4.96311e+07
4.94691e+07
4.93086e+07
4.91469e+07
4.89859e+07
4.88239e+07
4.86621e+07
4.85e+07
4.83377e+07
4.81754e+07
4.80129e+07
4.78504e+07
4.7688e+07
4.75256e+07
4.73633e+07
4.7201e+07
4.70385e+07
4.68759e+07
4.67131e+07
4.65503e+07
4.63875e+07
4.62248e+07
4.60621e+07
4.58994e+07
4.57366e+07
4.55737e+07
4.54106e+07
4.52475e+07
4.50842e+07
4.4921e+07
4.47583e+07
4.45958e+07
4.44334e+07
4.4271e+07
4.41084e+07
4.39457e+07
4.3783e+07
4.36202e+07
4.34574e+07
4.32945e+07
4.31317e+07
4.29691e+07
4.28064e+07
4.26439e+07
4.24813e+07
4.23184e+07
4.21555e+07
4.19924e+07
4.18294e+07
4.16665e+07
4.15037e+07
4.1341e+07
4.11782e+07
4.10154e+07
4.08526e+07
4.06898e+07
4.05271e+07
4.03645e+07
4.02023e+07
4.00403e+07
3.98783e+07
3.97181e+07
3.95539e+07
3.93886e+07
3.92281e+07
3.90684e+07
3.89049e+07
3.87405e+07
3.85771e+07
3.84135e+07
3.82508e+07
3.80881e+07
3.79257e+07
3.77632e+07
3.76008e+07
3.74383e+07
3.72758e+07
3.71131e+07
3.69501e+07
3.67868e+07
3.66233e+07
3.64598e+07
3.62965e+07
3.61337e+07
3.59713e+07
3.5809e+07
3.56465e+07
3.54838e+07
3.53209e+07
3.51579e+07
3.4995e+07
3.48324e+07
3.467e+07
3.45074e+07
3.43449e+07
3.41822e+07
3.40194e+07
3.38565e+07
3.36936e+07
3.35307e+07
3.33679e+07
3.3205e+07
3.30419e+07
3.28788e+07
3.27157e+07
3.25528e+07
3.23899e+07
3.2227e+07
3.20641e+07
3.1901e+07
3.17379e+07
3.15747e+07
3.14116e+07
3.12486e+07
3.10857e+07
3.09227e+07
3.07597e+07
3.05966e+07
3.04335e+07
3.02704e+07
3.01072e+07
2.99441e+07
2.97812e+07
2.96184e+07
2.94559e+07
2.92938e+07
2.9131e+07
2.89679e+07
2.8805e+07
2.8642e+07
2.84791e+07
2.83162e+07
2.81535e+07
2.79909e+07
2.78283e+07
2.76656e+07
2.75026e+07
2.73396e+07
2.71767e+07
2.70141e+07
2.68516e+07
2.66888e+07
2.65259e+07
2.63628e+07
2.61996e+07
2.60365e+07
2.58735e+07
2.57105e+07
2.55473e+07
2.53842e+07
2.52212e+07
2.50585e+07
2.48959e+07
2.47335e+07
2.45709e+07
2.44084e+07
2.42456e+07
2.40827e+07
2.39197e+07
2.37566e+07
2.35933e+07
2.34301e+07
2.32669e+07
2.31039e+07
2.29409e+07
2.27777e+07
2.26145e+07
2.24512e+07
2.22879e+07
2.21248e+07
2.19618e+07
2.17988e+07
2.16357e+07
2.14725e+07
2.13093e+07
2.11462e+07
2.09832e+07
2.08201e+07
2.06571e+07
2.04942e+07
2.03313e+07
2.01684e+07
2.00052e+07
1.98419e+07
1.96788e+07
1.95156e+07
1.93525e+07
1.91895e+07
1.90262e+07
1.8863e+07
1.86997e+07
1.85364e+07
1.83731e+07
1.82096e+07
1.80462e+07
1.7883e+07
1.77197e+07
1.75566e+07
1.73932e+07
1.72298e+07
1.70665e+07
1.69034e+07
1.67403e+07
1.65773e+07
1.64141e+07
1.6251e+07
1.60881e+07
1.59253e+07
1.57624e+07
1.55993e+07
1.54364e+07
1.52735e+07
1.51107e+07
1.49478e+07
1.47848e+07
1.46219e+07
1.4459e+07
1.42961e+07
1.41331e+07
1.39701e+07
1.38075e+07
1.36447e+07
1.34818e+07
1.33189e+07
1.31556e+07
1.29919e+07
1.28282e+07
1.26642e+07
1.25004e+07
1.23366e+07
1.21729e+07
1.20097e+07
1.18467e+07
1.16838e+07
1.1521e+07
1.13579e+07
1.11945e+07
1.10309e+07
1.08674e+07
1.0704e+07
1.05406e+07
1.03772e+07
1.02141e+07
1.00509e+07
9.88765e+06
9.72392e+06
9.55988e+06
9.3965e+06
9.23317e+06
9.0697e+06
8.90626e+06
8.74279e+06
8.57898e+06
8.41536e+06
8.25215e+06
8.08854e+06
7.92506e+06
7.76196e+06
7.59823e+06
7.43465e+06
7.27135e+06
7.10781e+06
6.94461e+06
6.78121e+06
6.61772e+06
6.45432e+06
6.29072e+06
6.12756e+06
5.96406e+06
5.80034e+06
5.63721e+06
5.47355e+06
5.31003e+06
5.14698e+06
4.98328e+06
4.8199e+06
4.65719e+06
4.49405e+06
4.3311e+06
4.1687e+06
4.00645e+06
3.84444e+06
3.68314e+06
3.52265e+06
3.36276e+06
3.20411e+06
3.04686e+06
2.89102e+06
2.73742e+06
2.58647e+06
2.43874e+06
2.29444e+06
2.15452e+06
2.02059e+06
1.89229e+06
1.77147e+06
1.65946e+06
1.55693e+06
1.46428e+06
1.38537e+06
1.31107e+06
1.25391e+06
1.15943e+06
1.08962e+06
934595
1.0816e+08
1.02972e+08
9.94021e+07
9.71616e+07
9.6433e+07
9.60713e+07
9.61744e+07
9.63636e+07
9.66422e+07
9.69069e+07
9.71541e+07
9.73579e+07
9.75212e+07
9.7638e+07
9.7719e+07
9.77574e+07
9.77755e+07
9.77606e+07
9.75849e+07
9.75347e+07
9.75351e+07
9.74165e+07
9.73171e+07
9.71911e+07
9.70638e+07
9.6927e+07
9.67867e+07
9.66418e+07
9.64942e+07
9.6344e+07
9.61921e+07
9.60387e+07
9.58843e+07
9.57291e+07
9.55734e+07
9.54172e+07
9.52609e+07
9.51043e+07
9.49477e+07
9.47908e+07
9.4633e+07
9.44753e+07
9.43135e+07
9.41526e+07
9.39998e+07
9.38441e+07
9.36853e+07
9.35273e+07
9.33687e+07
9.32105e+07
9.30524e+07
9.28945e+07
9.27368e+07
9.25791e+07
9.24215e+07
9.22639e+07
9.21064e+07
9.19489e+07
9.17913e+07
9.16338e+07
9.14762e+07
9.13187e+07
9.11611e+07
9.10035e+07
9.0846e+07
9.06884e+07
9.05309e+07
9.03733e+07
9.02159e+07
9.00578e+07
8.99009e+07
8.97409e+07
8.95869e+07
8.94168e+07
8.92755e+07
8.9037e+07
8.88609e+07
8.88211e+07
8.86559e+07
8.84896e+07
8.83346e+07
8.81673e+07
8.80075e+07
8.78491e+07
8.76915e+07
8.75343e+07
8.7377e+07
8.72197e+07
8.7062e+07
8.6904e+07
8.6746e+07
8.6588e+07
8.64304e+07
8.62724e+07
8.61155e+07
8.59569e+07
8.57981e+07
8.56436e+07
8.54859e+07
8.53272e+07
8.51699e+07
8.50119e+07
8.48544e+07
8.46968e+07
8.45393e+07
8.4382e+07
8.42247e+07
8.40675e+07
8.39102e+07
8.37527e+07
8.3595e+07
8.34372e+07
8.32794e+07
8.31218e+07
8.29643e+07
8.28068e+07
8.26494e+07
8.24921e+07
8.23347e+07
8.21774e+07
8.20199e+07
8.18625e+07
8.1705e+07
8.15474e+07
8.13898e+07
8.12321e+07
8.10745e+07
8.09169e+07
8.07593e+07
8.06016e+07
8.04439e+07
8.02862e+07
8.01285e+07
7.99708e+07
7.98131e+07
7.96554e+07
7.94977e+07
7.934e+07
7.91824e+07
7.90246e+07
7.88669e+07
7.87091e+07
7.85513e+07
7.83935e+07
7.82357e+07
7.80779e+07
7.79203e+07
7.77625e+07
7.76054e+07
7.74485e+07
7.72919e+07
7.71406e+07
7.69808e+07
7.68229e+07
7.66742e+07
7.65199e+07
7.63609e+07
7.61959e+07
7.60338e+07
7.58784e+07
7.57214e+07
7.55593e+07
7.54008e+07
7.52421e+07
7.5084e+07
7.49262e+07
7.47685e+07
7.46109e+07
7.44534e+07
7.42958e+07
7.41382e+07
7.39806e+07
7.3823e+07
7.36654e+07
7.35076e+07
7.33497e+07
7.31918e+07
7.30337e+07
7.2876e+07
7.2718e+07
7.25617e+07
7.2407e+07
7.22482e+07
7.20886e+07
7.19313e+07
7.17741e+07
7.16167e+07
7.14589e+07
7.13013e+07
7.11438e+07
7.09863e+07
7.0829e+07
7.06717e+07
7.05144e+07
7.03571e+07
7.01998e+07
7.00425e+07
6.98852e+07
6.97279e+07
6.95706e+07
6.94132e+07
6.92559e+07
6.90986e+07
6.89413e+07
6.87839e+07
6.86265e+07
6.8469e+07
6.83114e+07
6.81537e+07
6.7996e+07
6.78383e+07
6.76809e+07
6.75239e+07
6.7367e+07
6.72098e+07
6.70519e+07
6.68939e+07
6.67339e+07
6.65746e+07
6.64195e+07
6.62627e+07
6.61046e+07
6.59466e+07
6.57882e+07
6.563e+07
6.54719e+07
6.53139e+07
6.51561e+07
6.49983e+07
6.48405e+07
6.46828e+07
6.45251e+07
6.43674e+07
6.42097e+07
6.4052e+07
6.38944e+07
6.37367e+07
6.35791e+07
6.34214e+07
6.32638e+07
6.31062e+07
6.29486e+07
6.2791e+07
6.26334e+07
6.24758e+07
6.23182e+07
6.21604e+07
6.20026e+07
6.18448e+07
6.16869e+07
6.15291e+07
6.13713e+07
6.12136e+07
6.10561e+07
6.08987e+07
6.07416e+07
6.05845e+07
6.04276e+07
6.02703e+07
6.01123e+07
5.99544e+07
5.97966e+07
5.9639e+07
5.94814e+07
5.9324e+07
5.91666e+07
5.90093e+07
5.8852e+07
5.86947e+07
5.85374e+07
5.838e+07
5.82225e+07
5.8065e+07
5.79074e+07
5.77499e+07
5.75923e+07
5.74346e+07
5.7277e+07
5.71193e+07
5.69615e+07
5.68038e+07
5.66461e+07
5.64885e+07
5.63311e+07
5.61736e+07
5.60161e+07
5.58585e+07
5.57008e+07
5.5543e+07
5.53852e+07
5.52273e+07
5.50693e+07
5.49114e+07
5.47535e+07
5.4596e+07
5.44385e+07
5.42817e+07
5.41244e+07
5.39654e+07
5.38072e+07
5.36496e+07
5.34922e+07
5.33349e+07
5.31776e+07
5.30203e+07
5.28631e+07
5.27058e+07
5.25491e+07
5.23926e+07
5.22346e+07
5.20753e+07
5.19158e+07
5.17586e+07
5.16023e+07
5.14449e+07
5.12876e+07
5.11299e+07
5.0972e+07
5.08141e+07
5.06561e+07
5.04981e+07
5.03403e+07
5.01826e+07
5.0025e+07
4.98674e+07
4.971e+07
4.95526e+07
4.93953e+07
4.92377e+07
4.90801e+07
4.8922e+07
4.87607e+07
4.86042e+07
4.84472e+07
4.8284e+07
4.81252e+07
4.79694e+07
4.7814e+07
4.76569e+07
4.75005e+07
4.73432e+07
4.71862e+07
4.70288e+07
4.68715e+07
4.6714e+07
4.65565e+07
4.6399e+07
4.62415e+07
4.6084e+07
4.59266e+07
4.57691e+07
4.56115e+07
4.54538e+07
4.5296e+07
4.51382e+07
4.49804e+07
4.48227e+07
4.46649e+07
4.45071e+07
4.43492e+07
4.41913e+07
4.40333e+07
4.38752e+07
4.3717e+07
4.35587e+07
4.34009e+07
4.32434e+07
4.30859e+07
4.29284e+07
4.27706e+07
4.26128e+07
4.2455e+07
4.22972e+07
4.21392e+07
4.19814e+07
4.18235e+07
4.16658e+07
4.15082e+07
4.13504e+07
4.11927e+07
4.10348e+07
4.08768e+07
4.07188e+07
4.05608e+07
4.04029e+07
4.02451e+07
4.00873e+07
3.99294e+07
3.97715e+07
3.96137e+07
3.94559e+07
3.92981e+07
3.91403e+07
3.89828e+07
3.88253e+07
3.8668e+07
3.8513e+07
3.83539e+07
3.81953e+07
3.80414e+07
3.78841e+07
3.77246e+07
3.75651e+07
3.7407e+07
3.72485e+07
3.70908e+07
3.6933e+07
3.67754e+07
3.66178e+07
3.64602e+07
3.63027e+07
3.61451e+07
3.59874e+07
3.58293e+07
3.56711e+07
3.55127e+07
3.53544e+07
3.51962e+07
3.50384e+07
3.48808e+07
3.47232e+07
3.45656e+07
3.44078e+07
3.42499e+07
3.40919e+07
3.39339e+07
3.37763e+07
3.36187e+07
3.34611e+07
3.33034e+07
3.31456e+07
3.29878e+07
3.28298e+07
3.26718e+07
3.25139e+07
3.2356e+07
3.2198e+07
3.20399e+07
3.18818e+07
3.17238e+07
3.15659e+07
3.14079e+07
3.12498e+07
3.10918e+07
3.09337e+07
3.07756e+07
3.06175e+07
3.04594e+07
3.03013e+07
3.01434e+07
2.99853e+07
2.98271e+07
2.96691e+07
2.95111e+07
2.93529e+07
2.91947e+07
2.90366e+07
2.88786e+07
2.87207e+07
2.8563e+07
2.84057e+07
2.82478e+07
2.80897e+07
2.79318e+07
2.77736e+07
2.76158e+07
2.7458e+07
2.73003e+07
2.71426e+07
2.69847e+07
2.68269e+07
2.66689e+07
2.6511e+07
2.63532e+07
2.61954e+07
2.60377e+07
2.58797e+07
2.57216e+07
2.55636e+07
2.54056e+07
2.52475e+07
2.50895e+07
2.49314e+07
2.47732e+07
2.46151e+07
2.44572e+07
2.42994e+07
2.41416e+07
2.3984e+07
2.38262e+07
2.36684e+07
2.35107e+07
2.33526e+07
2.31946e+07
2.30365e+07
2.28782e+07
2.272e+07
2.2562e+07
2.24039e+07
2.22459e+07
2.20876e+07
2.19293e+07
2.17711e+07
2.1613e+07
2.14549e+07
2.12967e+07
2.11385e+07
2.09804e+07
2.08223e+07
2.06641e+07
2.05059e+07
2.03478e+07
2.01897e+07
2.00317e+07
1.98737e+07
1.97156e+07
1.95576e+07
1.93994e+07
1.9241e+07
1.9083e+07
1.89249e+07
1.87666e+07
1.86084e+07
1.84502e+07
1.82919e+07
1.81337e+07
1.79753e+07
1.78169e+07
1.76585e+07
1.75002e+07
1.7342e+07
1.71837e+07
1.70254e+07
1.6867e+07
1.67086e+07
1.65505e+07
1.63924e+07
1.62342e+07
1.6076e+07
1.59179e+07
1.57599e+07
1.56018e+07
1.54439e+07
1.52859e+07
1.51279e+07
1.49699e+07
1.48119e+07
1.4654e+07
1.44961e+07
1.43381e+07
1.41801e+07
1.40221e+07
1.38641e+07
1.37061e+07
1.35482e+07
1.33903e+07
1.32324e+07
1.30742e+07
1.29162e+07
1.2758e+07
1.25994e+07
1.24407e+07
1.2282e+07
1.21233e+07
1.19646e+07
1.1806e+07
1.16478e+07
1.14897e+07
1.13315e+07
1.11735e+07
1.10154e+07
1.08569e+07
1.06983e+07
1.05399e+07
1.03817e+07
1.02233e+07
1.00649e+07
9.90666e+06
9.74838e+06
9.58992e+06
9.43137e+06
9.27258e+06
9.11429e+06
8.95602e+06
8.79745e+06
8.63895e+06
8.48052e+06
8.32187e+06
8.1633e+06
8.00518e+06
7.84665e+06
7.68793e+06
7.52982e+06
7.37132e+06
7.21262e+06
7.05448e+06
6.89618e+06
6.73769e+06
6.57925e+06
6.42092e+06
6.26271e+06
6.10416e+06
5.94577e+06
5.78745e+06
5.62889e+06
5.47085e+06
5.31246e+06
5.1538e+06
4.99592e+06
4.83782e+06
4.67937e+06
4.52173e+06
4.36394e+06
4.20593e+06
4.04872e+06
3.89202e+06
3.73519e+06
3.57859e+06
3.42333e+06
3.26878e+06
3.11481e+06
2.96234e+06
2.81117e+06
2.66168e+06
2.5144e+06
2.37001e+06
2.2285e+06
2.09017e+06
1.95634e+06
1.82726e+06
1.70305e+06
1.58491e+06
1.4726e+06
1.36441e+06
1.26204e+06
1.15401e+06
1.04456e+06
900254
838910
1.2783e+06
9.3791e+07
9.63981e+07
9.6226e+07
9.52262e+07
9.45931e+07
9.41146e+07
9.39863e+07
9.39605e+07
9.40481e+07
9.41577e+07
9.428e+07
9.4386e+07
9.44731e+07
9.4531e+07
9.45716e+07
9.45702e+07
9.46221e+07
9.44783e+07
9.5109e+07
9.43348e+07
9.43504e+07
9.41756e+07
9.40696e+07
9.39394e+07
9.3813e+07
9.36788e+07
9.3542e+07
9.34012e+07
9.32581e+07
9.31127e+07
9.29657e+07
9.28174e+07
9.26681e+07
9.25181e+07
9.23676e+07
9.22167e+07
9.20656e+07
9.19143e+07
9.17631e+07
9.16119e+07
9.14602e+07
9.13089e+07
9.11521e+07
9.0996e+07
9.08492e+07
9.06981e+07
9.05434e+07
9.03905e+07
9.02371e+07
9.00844e+07
8.99318e+07
8.97793e+07
8.9627e+07
8.94746e+07
8.93224e+07
8.91701e+07
8.90178e+07
8.88656e+07
8.87133e+07
8.85611e+07
8.84088e+07
8.82565e+07
8.81043e+07
8.7952e+07
8.77997e+07
8.76474e+07
8.74952e+07
8.73428e+07
8.71908e+07
8.70382e+07
8.6887e+07
8.67337e+07
8.65899e+07
8.64308e+07
8.63453e+07
8.60925e+07
8.65875e+07
8.57917e+07
8.57338e+07
8.55186e+07
8.53754e+07
8.52089e+07
8.50554e+07
8.49035e+07
8.47515e+07
8.45996e+07
8.44476e+07
8.42954e+07
8.41428e+07
8.39899e+07
8.38371e+07
8.36843e+07
8.3532e+07
8.33793e+07
8.32281e+07
8.30745e+07
8.29204e+07
8.27727e+07
8.26202e+07
8.24663e+07
8.23144e+07
8.21617e+07
8.20094e+07
8.18571e+07
8.17048e+07
8.15527e+07
8.14006e+07
8.12486e+07
8.10967e+07
8.09443e+07
8.07919e+07
8.06394e+07
8.04869e+07
8.03346e+07
8.01824e+07
8.00302e+07
7.98781e+07
7.9726e+07
7.95739e+07
7.94218e+07
7.92697e+07
7.91175e+07
7.89653e+07
7.8813e+07
7.86607e+07
7.85084e+07
7.83561e+07
7.82037e+07
7.80514e+07
7.7899e+07
7.77466e+07
7.75942e+07
7.74418e+07
7.72894e+07
7.7137e+07
7.69846e+07
7.68322e+07
7.66798e+07
7.65274e+07
7.63749e+07
7.62225e+07
7.607e+07
7.59175e+07
7.5765e+07
7.56126e+07
7.54599e+07
7.53075e+07
7.51546e+07
7.50022e+07
7.48493e+07
7.46973e+07
7.45496e+07
7.43999e+07
7.42599e+07
7.41078e+07
7.39522e+07
7.38022e+07
7.36442e+07
7.34842e+07
7.33327e+07
7.31824e+07
7.3024e+07
7.2871e+07
7.27183e+07
7.25659e+07
7.24138e+07
7.22615e+07
7.21093e+07
7.19571e+07
7.18049e+07
7.16527e+07
7.15004e+07
7.13481e+07
7.11959e+07
7.10435e+07
7.0891e+07
7.07384e+07
7.05854e+07
7.04328e+07
7.02794e+07
7.01281e+07
6.99794e+07
6.9825e+07
6.96702e+07
6.95188e+07
6.93675e+07
6.92154e+07
6.9063e+07
6.89107e+07
6.87585e+07
6.86064e+07
6.84544e+07
6.83024e+07
6.81504e+07
6.79984e+07
6.78464e+07
6.76943e+07
6.75423e+07
6.73902e+07
6.72381e+07
6.70859e+07
6.69339e+07
6.67818e+07
6.66298e+07
6.64778e+07
6.63257e+07
6.61735e+07
6.60212e+07
6.58688e+07
6.57163e+07
6.55638e+07
6.54116e+07
6.526e+07
6.51084e+07
6.49567e+07
6.48045e+07
6.46523e+07
6.44972e+07
6.43424e+07
6.41932e+07
6.40417e+07
6.38882e+07
6.37354e+07
6.35822e+07
6.34294e+07
6.32767e+07
6.31241e+07
6.29716e+07
6.28191e+07
6.26667e+07
6.25142e+07
6.23618e+07
6.22095e+07
6.20571e+07
6.19047e+07
6.17523e+07
6.15999e+07
6.14476e+07
6.12952e+07
6.11429e+07
6.09905e+07
6.08382e+07
6.06859e+07
6.05336e+07
6.03812e+07
6.02289e+07
6.00765e+07
5.9924e+07
5.97714e+07
5.96189e+07
5.94664e+07
5.9314e+07
5.91616e+07
5.90093e+07
5.88571e+07
5.87051e+07
5.85532e+07
5.84016e+07
5.82498e+07
5.80968e+07
5.79442e+07
5.77918e+07
5.76395e+07
5.74874e+07
5.73353e+07
5.71833e+07
5.70312e+07
5.68792e+07
5.67271e+07
5.6575e+07
5.64228e+07
5.62706e+07
5.61184e+07
5.59662e+07
5.58139e+07
5.56616e+07
5.55093e+07
5.53569e+07
5.52046e+07
5.50521e+07
5.48997e+07
5.47472e+07
5.45948e+07
5.44427e+07
5.42905e+07
5.41383e+07
5.3986e+07
5.38336e+07
5.36811e+07
5.35286e+07
5.33759e+07
5.32233e+07
5.30706e+07
5.2918e+07
5.27657e+07
5.26133e+07
5.2462e+07
5.23103e+07
5.21563e+07
5.20035e+07
5.18515e+07
5.16994e+07
5.15476e+07
5.13956e+07
5.12434e+07
5.10912e+07
5.09389e+07
5.07874e+07
5.06365e+07
5.04839e+07
5.03299e+07
5.01754e+07
5.0024e+07
4.98732e+07
4.97209e+07
4.95687e+07
4.94161e+07
4.92634e+07
4.91108e+07
4.89581e+07
4.88056e+07
4.8653e+07
4.85006e+07
4.83483e+07
4.81959e+07
4.80437e+07
4.78915e+07
4.77397e+07
4.75877e+07
4.74362e+07
4.72839e+07
4.71287e+07
4.69744e+07
4.68147e+07
4.66621e+07
4.65137e+07
4.63624e+07
4.62131e+07
4.60606e+07
4.59092e+07
4.57569e+07
4.5605e+07
4.54528e+07
4.53006e+07
4.51484e+07
4.49962e+07
4.4844e+07
4.46918e+07
4.45396e+07
4.43873e+07
4.4235e+07
4.40827e+07
4.39303e+07
4.37778e+07
4.36254e+07
4.3473e+07
4.33205e+07
4.3168e+07
4.30155e+07
4.2863e+07
4.27104e+07
4.25578e+07
4.2405e+07
4.22522e+07
4.20991e+07
4.19467e+07
4.17946e+07
4.16423e+07
4.149e+07
4.13375e+07
4.1185e+07
4.10324e+07
4.08798e+07
4.07271e+07
4.05746e+07
4.04221e+07
4.02697e+07
4.01173e+07
3.99648e+07
3.98123e+07
3.96596e+07
3.9507e+07
3.93544e+07
3.92018e+07
3.90492e+07
3.88967e+07
3.87442e+07
3.85916e+07
3.8439e+07
3.82865e+07
3.8134e+07
3.79815e+07
3.78288e+07
3.76763e+07
3.75234e+07
3.73711e+07
3.72208e+07
3.70696e+07
3.69225e+07
3.67698e+07
3.6614e+07
3.64606e+07
3.63057e+07
3.61535e+07
3.60005e+07
3.58481e+07
3.56955e+07
3.55432e+07
3.53908e+07
3.52385e+07
3.50863e+07
3.49341e+07
3.47816e+07
3.46289e+07
3.44761e+07
3.43231e+07
3.41703e+07
3.40175e+07
3.38649e+07
3.37126e+07
3.35602e+07
3.34078e+07
3.32553e+07
3.31028e+07
3.29502e+07
3.27973e+07
3.2645e+07
3.24928e+07
3.23404e+07
3.2188e+07
3.20354e+07
3.18828e+07
3.17301e+07
3.15775e+07
3.14249e+07
3.12722e+07
3.11196e+07
3.09668e+07
3.08141e+07
3.06615e+07
3.05089e+07
3.03562e+07
3.02034e+07
3.00506e+07
2.98978e+07
2.9745e+07
2.95923e+07
2.94396e+07
2.92869e+07
2.91342e+07
2.89814e+07
2.88286e+07
2.86759e+07
2.85232e+07
2.83705e+07
2.82177e+07
2.80647e+07
2.7912e+07
2.77592e+07
2.76068e+07
2.7455e+07
2.73022e+07
2.71492e+07
2.69967e+07
2.68439e+07
2.66914e+07
2.6539e+07
2.63867e+07
2.62342e+07
2.60816e+07
2.59289e+07
2.57763e+07
2.56239e+07
2.54714e+07
2.53188e+07
2.51662e+07
2.50135e+07
2.48607e+07
2.47081e+07
2.45555e+07
2.44028e+07
2.42501e+07
2.40974e+07
2.39446e+07
2.37918e+07
2.36393e+07
2.34867e+07
2.33341e+07
2.31816e+07
2.3029e+07
2.28765e+07
2.27241e+07
2.25713e+07
2.24186e+07
2.22659e+07
2.2113e+07
2.19602e+07
2.18075e+07
2.16547e+07
2.1502e+07
2.1349e+07
2.1196e+07
2.10433e+07
2.08906e+07
2.07379e+07
2.05849e+07
2.04319e+07
2.02792e+07
2.01265e+07
1.99737e+07
1.98208e+07
1.96679e+07
1.95152e+07
1.93625e+07
1.92098e+07
1.90569e+07
1.89041e+07
1.87513e+07
1.85984e+07
1.84456e+07
1.82929e+07
1.81398e+07
1.79869e+07
1.7834e+07
1.76812e+07
1.75283e+07
1.73752e+07
1.72221e+07
1.70691e+07
1.69163e+07
1.67635e+07
1.66104e+07
1.64573e+07
1.63044e+07
1.61514e+07
1.59988e+07
1.5846e+07
1.5693e+07
1.55402e+07
1.53875e+07
1.52348e+07
1.50821e+07
1.49293e+07
1.47767e+07
1.46241e+07
1.44714e+07
1.43186e+07
1.4166e+07
1.40135e+07
1.38609e+07
1.37081e+07
1.35554e+07
1.34026e+07
1.32501e+07
1.30976e+07
1.29448e+07
1.27921e+07
1.26392e+07
1.24863e+07
1.23337e+07
1.21806e+07
1.20273e+07
1.18741e+07
1.17209e+07
1.15677e+07
1.14146e+07
1.12617e+07
1.1109e+07
1.0956e+07
1.0803e+07
1.06503e+07
1.04974e+07
1.03443e+07
1.01912e+07
1.00383e+07
9.88537e+06
9.73248e+06
9.57951e+06
9.42645e+06
9.27321e+06
9.12027e+06
8.96723e+06
8.81424e+06
8.66132e+06
8.50821e+06
8.35516e+06
8.20207e+06
8.04902e+06
7.89585e+06
7.74307e+06
7.59027e+06
7.43689e+06
7.28389e+06
7.13103e+06
6.97779e+06
6.82516e+06
6.67252e+06
6.51933e+06
6.36628e+06
6.21342e+06
6.06083e+06
5.90785e+06
5.75469e+06
5.60207e+06
5.44922e+06
5.29652e+06
5.14394e+06
4.99082e+06
4.83829e+06
4.68623e+06
4.53358e+06
4.3813e+06
4.22928e+06
4.07704e+06
3.92539e+06
3.77434e+06
3.62343e+06
3.47234e+06
3.32246e+06
3.1735e+06
3.02473e+06
2.87733e+06
2.73126e+06
2.58638e+06
2.44297e+06
2.30176e+06
2.16316e+06
2.02659e+06
1.89268e+06
1.76255e+06
1.63493e+06
1.51047e+06
1.38911e+06
1.26778e+06
1.14805e+06
1.0214e+06
901167
805255
944720
1.5584e+06
8.30702e+07
8.94209e+07
9.20106e+07
9.22888e+07
9.21545e+07
9.18279e+07
9.16534e+07
9.15258e+07
9.14917e+07
9.14875e+07
9.15094e+07
9.15314e+07
9.15493e+07
9.15516e+07
9.15436e+07
9.15048e+07
9.14761e+07
9.13334e+07
9.12416e+07
9.12716e+07
9.11668e+07
9.10468e+07
9.09311e+07
9.08051e+07
9.06789e+07
9.05471e+07
9.0413e+07
9.02757e+07
9.01365e+07
8.99953e+07
8.98528e+07
8.97091e+07
8.95646e+07
8.94194e+07
8.92738e+07
8.91279e+07
8.89818e+07
8.88355e+07
8.86897e+07
8.85439e+07
8.83983e+07
8.82537e+07
8.81013e+07
8.79476e+07
8.78077e+07
8.76623e+07
8.7511e+07
8.73629e+07
8.72146e+07
8.70671e+07
8.69199e+07
8.67726e+07
8.66255e+07
8.64783e+07
8.63312e+07
8.6184e+07
8.60369e+07
8.58897e+07
8.57426e+07
8.55954e+07
8.54482e+07
8.53011e+07
8.51539e+07
8.50067e+07
8.48596e+07
8.47124e+07
8.45653e+07
8.4418e+07
8.4271e+07
8.41237e+07
8.39775e+07
8.38301e+07
8.36876e+07
8.35408e+07
8.34058e+07
8.32631e+07
8.30074e+07
8.28754e+07
8.28011e+07
8.26433e+07
8.25111e+07
8.2353e+07
8.22048e+07
8.20602e+07
8.19137e+07
8.17672e+07
8.16203e+07
8.14732e+07
8.13255e+07
8.11775e+07
8.10296e+07
8.08818e+07
8.07345e+07
8.05869e+07
8.04415e+07
8.02926e+07
8.01432e+07
8.00024e+07
7.98547e+07
7.9705e+07
7.95585e+07
7.94108e+07
7.92636e+07
7.91164e+07
7.89691e+07
7.8822e+07
7.8675e+07
7.85281e+07
7.83813e+07
7.82341e+07
7.80866e+07
7.79392e+07
7.77919e+07
7.76446e+07
7.74975e+07
7.73505e+07
7.72035e+07
7.70565e+07
7.69095e+07
7.67625e+07
7.66155e+07
7.64684e+07
7.63212e+07
7.61741e+07
7.60269e+07
7.58797e+07
7.57325e+07
7.55852e+07
7.5438e+07
7.52907e+07
7.51434e+07
7.49961e+07
7.48488e+07
7.47016e+07
7.45543e+07
7.4407e+07
7.42597e+07
7.41124e+07
7.39651e+07
7.38178e+07
7.36704e+07
7.35231e+07
7.33757e+07
7.32283e+07
7.30809e+07
7.29334e+07
7.27859e+07
7.26377e+07
7.24901e+07
7.23405e+07
7.21938e+07
7.20501e+07
7.19022e+07
7.17794e+07
7.16371e+07
7.1475e+07
7.13285e+07
7.11808e+07
7.10349e+07
7.08772e+07
7.07284e+07
7.05763e+07
7.04289e+07
7.02825e+07
7.01355e+07
6.9989e+07
6.9842e+07
6.9695e+07
6.95479e+07
6.94009e+07
6.92538e+07
6.91067e+07
6.89596e+07
6.88125e+07
6.86654e+07
6.85181e+07
6.83706e+07
6.82226e+07
6.80748e+07
6.79256e+07
6.77792e+07
6.76366e+07
6.74866e+07
6.7336e+07
6.71904e+07
6.7045e+07
6.68981e+07
6.67507e+07
6.66035e+07
6.64564e+07
6.63095e+07
6.61626e+07
6.60157e+07
6.58689e+07
6.5722e+07
6.55751e+07
6.54281e+07
6.52811e+07
6.5134e+07
6.49869e+07
6.48399e+07
6.46929e+07
6.4546e+07
6.43991e+07
6.42522e+07
6.41052e+07
6.39581e+07
6.3811e+07
6.36636e+07
6.35162e+07
6.33686e+07
6.32214e+07
6.3075e+07
6.29287e+07
6.27824e+07
6.26357e+07
6.24892e+07
6.23385e+07
6.21881e+07
6.2045e+07
6.18985e+07
6.17493e+07
6.16014e+07
6.14533e+07
6.13057e+07
6.11582e+07
6.10108e+07
6.08634e+07
6.07161e+07
6.05688e+07
6.04215e+07
6.02742e+07
6.01269e+07
5.99797e+07
5.98324e+07
5.96851e+07
5.95378e+07
5.93906e+07
5.92434e+07
5.90961e+07
5.89489e+07
5.88016e+07
5.86544e+07
5.85072e+07
5.83599e+07
5.82127e+07
5.80654e+07
5.7918e+07
5.77706e+07
5.76232e+07
5.74759e+07
5.73285e+07
5.71812e+07
5.7034e+07
5.68868e+07
5.67399e+07
5.6593e+07
5.64467e+07
5.63001e+07
5.6152e+07
5.60044e+07
5.58571e+07
5.571e+07
5.55631e+07
5.54162e+07
5.52693e+07
5.51224e+07
5.49754e+07
5.48284e+07
5.46813e+07
5.45342e+07
5.43871e+07
5.424e+07
5.40929e+07
5.39458e+07
5.37986e+07
5.36514e+07
5.35042e+07
5.33569e+07
5.32096e+07
5.30622e+07
5.29148e+07
5.27675e+07
5.26205e+07
5.24735e+07
5.23264e+07
5.21792e+07
5.20319e+07
5.18845e+07
5.17371e+07
5.15895e+07
5.1442e+07
5.12944e+07
5.11467e+07
5.09994e+07
5.0852e+07
5.07062e+07
5.056e+07
5.04106e+07
5.02629e+07
5.01163e+07
4.99695e+07
4.98229e+07
4.9676e+07
4.95288e+07
4.93815e+07
4.92339e+07
4.90874e+07
4.89422e+07
4.8795e+07
4.86455e+07
4.84956e+07
4.835e+07
4.82049e+07
4.80575e+07
4.79102e+07
4.77625e+07
4.76148e+07
4.74673e+07
4.73198e+07
4.71723e+07
4.70249e+07
4.68776e+07
4.67303e+07
4.65831e+07
4.64359e+07
4.62888e+07
4.61424e+07
4.59956e+07
4.58502e+07
4.57029e+07
4.55534e+07
4.54062e+07
4.52441e+07
4.5093e+07
4.4958e+07
4.4812e+07
4.46688e+07
4.45205e+07
4.43739e+07
4.42264e+07
4.40793e+07
4.39321e+07
4.3785e+07
4.36378e+07
4.34907e+07
4.33436e+07
4.31965e+07
4.30493e+07
4.29021e+07
4.27549e+07
4.26076e+07
4.24603e+07
4.2313e+07
4.21657e+07
4.20184e+07
4.18711e+07
4.17237e+07
4.15763e+07
4.1429e+07
4.12816e+07
4.11342e+07
4.09866e+07
4.08388e+07
4.06907e+07
4.05436e+07
4.03967e+07
4.02495e+07
4.01023e+07
3.99549e+07
3.98074e+07
3.96598e+07
3.95123e+07
3.93647e+07
3.92173e+07
3.90699e+07
3.89226e+07
3.87754e+07
3.8628e+07
3.84806e+07
3.8333e+07
3.81855e+07
3.8038e+07
3.78906e+07
3.77432e+07
3.75958e+07
3.74484e+07
3.73009e+07
3.71535e+07
3.7006e+07
3.68586e+07
3.67112e+07
3.65635e+07
3.64159e+07
3.62673e+07
3.61203e+07
3.59747e+07
3.58271e+07
3.56911e+07
3.55464e+07
3.53892e+07
3.52409e+07
3.50904e+07
3.49441e+07
3.47963e+07
3.46493e+07
3.45018e+07
3.43545e+07
3.42072e+07
3.406e+07
3.3913e+07
3.3766e+07
3.36186e+07
3.3471e+07
3.33234e+07
3.31757e+07
3.3028e+07
3.28803e+07
3.27328e+07
3.25857e+07
3.24384e+07
3.22911e+07
3.21438e+07
3.19963e+07
3.18488e+07
3.17009e+07
3.15537e+07
3.14067e+07
3.12596e+07
3.11122e+07
3.09646e+07
3.08171e+07
3.06696e+07
3.05221e+07
3.03746e+07
3.0227e+07
3.00794e+07
2.99319e+07
2.97844e+07
2.96369e+07
2.94894e+07
2.93419e+07
2.91942e+07
2.90464e+07
2.88988e+07
2.87512e+07
2.86037e+07
2.84562e+07
2.83086e+07
2.8161e+07
2.80134e+07
2.78658e+07
2.77182e+07
2.75707e+07
2.74231e+07
2.72755e+07
2.71277e+07
2.69799e+07
2.68321e+07
2.66848e+07
2.65384e+07
2.63906e+07
2.62424e+07
2.60951e+07
2.59475e+07
2.58002e+07
2.56531e+07
2.55058e+07
2.53584e+07
2.52109e+07
2.50633e+07
2.49159e+07
2.47686e+07
2.46213e+07
2.44738e+07
2.43262e+07
2.41786e+07
2.4031e+07
2.38835e+07
2.37361e+07
2.35886e+07
2.3441e+07
2.32934e+07
2.31459e+07
2.29983e+07
2.28508e+07
2.27034e+07
2.25558e+07
2.24084e+07
2.22609e+07
2.21134e+07
2.19661e+07
2.18185e+07
2.16708e+07
2.15233e+07
2.13756e+07
2.1228e+07
2.10805e+07
2.09329e+07
2.07852e+07
2.06374e+07
2.04897e+07
2.03421e+07
2.01946e+07
2.0047e+07
1.98991e+07
1.97512e+07
1.96036e+07
1.94561e+07
1.93085e+07
1.91607e+07
1.9013e+07
1.88654e+07
1.87179e+07
1.85703e+07
1.84225e+07
1.82747e+07
1.81272e+07
1.79795e+07
1.78318e+07
1.76842e+07
1.75363e+07
1.73885e+07
1.72409e+07
1.70931e+07
1.69453e+07
1.67974e+07
1.66496e+07
1.65018e+07
1.63542e+07
1.62065e+07
1.60585e+07
1.59106e+07