/*--------------------------------*- C++ -*----------------------------------*\
| =========                 |                                                 |
| \\      /  F ield         | foam-extend: Open Source CFD                    |
|  \\    /   O peration     | Version:     4.0                                |
|   \\  /    A nd           | Web:         http://www.foam-extend.org         |
|    \\/     M anipulation  |                                                 |
\*---------------------------------------------------------------------------*/
FoamFile
{
    version     2.0;
    format      ascii;
    class       volScalarField;
    location    "1";
    object      sigmaHyd;
}
// * * * * * * * * * * * * * * * * * * * * * * * * * * * * * * * * * * * * * //

dimensions      [1 -1 -2 0 0 0 0];

internalField   nonuniform List<scalar> 
40960
(
-6.64302e+07
-5.15414e+07
-4.9293e+07
-4.76687e+07
-4.76184e+07
-4.7648e+07
-4.79175e+07
-4.8169e+07
-4.84321e+07
-4.86549e+07
-4.88472e+07
-4.89999e+07
-4.91198e+07
-4.92061e+07
-4.92677e+07
-4.92992e+07
-4.93152e+07
-4.93039e+07
-4.92485e+07
-4.9244e+07
-4.92165e+07
-4.91625e+07
-4.9115e+07
-4.90525e+07
-4.89894e+07
-4.89207e+07
-4.88501e+07
-4.8777e+07
-4.87025e+07
-4.86266e+07
-4.85499e+07
-4.84724e+07
-4.83944e+07
-4.8316e+07
-4.82374e+07
-4.81586e+07
-4.80797e+07
-4.80006e+07
-4.79216e+07
-4.78421e+07
-4.77623e+07
-4.76819e+07
-4.76e+07
-4.75193e+07
-4.74418e+07
-4.73639e+07
-4.72841e+07
-4.72044e+07
-4.71244e+07
-4.70444e+07
-4.69645e+07
-4.68848e+07
-4.68051e+07
-4.67255e+07
-4.66459e+07
-4.65664e+07
-4.64869e+07
-4.64074e+07
-4.63279e+07
-4.62484e+07
-4.61689e+07
-4.60894e+07
-4.60098e+07
-4.59303e+07
-4.58507e+07
-4.57712e+07
-4.56918e+07
-4.56122e+07
-4.55328e+07
-4.54529e+07
-4.53738e+07
-4.52924e+07
-4.52144e+07
-4.51273e+07
-4.50524e+07
-4.49601e+07
-4.48565e+07
-4.48112e+07
-4.47393e+07
-4.46596e+07
-4.45836e+07
-4.44994e+07
-4.44183e+07
-4.43378e+07
-4.42582e+07
-4.41788e+07
-4.40996e+07
-4.40202e+07
-4.39407e+07
-4.3861e+07
-4.37813e+07
-4.37016e+07
-4.3622e+07
-4.35423e+07
-4.34629e+07
-4.33828e+07
-4.33029e+07
-4.32243e+07
-4.31451e+07
-4.3065e+07
-4.29854e+07
-4.29057e+07
-4.28262e+07
-4.27467e+07
-4.26672e+07
-4.25879e+07
-4.25085e+07
-4.24293e+07
-4.23499e+07
-4.22704e+07
-4.21907e+07
-4.21111e+07
-4.20315e+07
-4.19519e+07
-4.18724e+07
-4.17929e+07
-4.17135e+07
-4.16341e+07
-4.15547e+07
-4.14753e+07
-4.13959e+07
-4.13164e+07
-4.12369e+07
-4.11573e+07
-4.10778e+07
-4.09982e+07
-4.09186e+07
-4.0839e+07
-4.07595e+07
-4.06799e+07
-4.06004e+07
-4.05208e+07
-4.04412e+07
-4.03615e+07
-4.02819e+07
-4.02024e+07
-4.01228e+07
-4.00432e+07
-3.99637e+07
-3.98841e+07
-3.98045e+07
-3.97248e+07
-3.96452e+07
-3.95655e+07
-3.94859e+07
-3.94063e+07
-3.93268e+07
-3.92473e+07
-3.91683e+07
-3.90896e+07
-3.9011e+07
-3.89345e+07
-3.88519e+07
-3.87711e+07
-3.86957e+07
-3.86201e+07
-3.85401e+07
-3.84554e+07
-3.83744e+07
-3.82958e+07
-3.82179e+07
-3.81364e+07
-3.8056e+07
-3.79757e+07
-3.78956e+07
-3.78159e+07
-3.77363e+07
-3.76567e+07
-3.75771e+07
-3.74976e+07
-3.74181e+07
-3.73385e+07
-3.72589e+07
-3.71793e+07
-3.70997e+07
-3.702e+07
-3.69402e+07
-3.68604e+07
-3.67809e+07
-3.67015e+07
-3.6623e+07
-3.65447e+07
-3.64649e+07
-3.63843e+07
-3.63046e+07
-3.62252e+07
-3.61456e+07
-3.6066e+07
-3.59864e+07
-3.59068e+07
-3.58273e+07
-3.5748e+07
-3.56686e+07
-3.55892e+07
-3.55097e+07
-3.54303e+07
-3.53509e+07
-3.52716e+07
-3.51922e+07
-3.51128e+07
-3.50334e+07
-3.49541e+07
-3.48746e+07
-3.47952e+07
-3.47158e+07
-3.46363e+07
-3.45568e+07
-3.44773e+07
-3.43976e+07
-3.4318e+07
-3.42384e+07
-3.41591e+07
-3.40799e+07
-3.40007e+07
-3.39212e+07
-3.38415e+07
-3.37614e+07
-3.36805e+07
-3.36004e+07
-3.35219e+07
-3.34432e+07
-3.33636e+07
-3.32839e+07
-3.32039e+07
-3.3124e+07
-3.30441e+07
-3.29643e+07
-3.28846e+07
-3.2805e+07
-3.27254e+07
-3.26458e+07
-3.25662e+07
-3.24865e+07
-3.2407e+07
-3.23274e+07
-3.22478e+07
-3.21682e+07
-3.20886e+07
-3.20091e+07
-3.19295e+07
-3.185e+07
-3.17704e+07
-3.16909e+07
-3.16114e+07
-3.15318e+07
-3.14523e+07
-3.13727e+07
-3.12931e+07
-3.12134e+07
-3.11336e+07
-3.10539e+07
-3.09743e+07
-3.08947e+07
-3.08152e+07
-3.07358e+07
-3.06565e+07
-3.05773e+07
-3.04981e+07
-3.04187e+07
-3.0339e+07
-3.02593e+07
-3.01796e+07
-3.01e+07
-3.00205e+07
-2.9941e+07
-2.98616e+07
-2.97821e+07
-2.97028e+07
-2.96234e+07
-2.95441e+07
-2.94647e+07
-2.93852e+07
-2.93057e+07
-2.92261e+07
-2.91465e+07
-2.9067e+07
-2.89874e+07
-2.89078e+07
-2.88282e+07
-2.87486e+07
-2.8669e+07
-2.85894e+07
-2.85099e+07
-2.84304e+07
-2.8351e+07
-2.82715e+07
-2.81919e+07
-2.81124e+07
-2.80327e+07
-2.79531e+07
-2.78734e+07
-2.77937e+07
-2.77139e+07
-2.76343e+07
-2.75548e+07
-2.74754e+07
-2.73963e+07
-2.73167e+07
-2.72366e+07
-2.71565e+07
-2.70769e+07
-2.69974e+07
-2.6918e+07
-2.68387e+07
-2.67593e+07
-2.668e+07
-2.66008e+07
-2.65218e+07
-2.64428e+07
-2.6363e+07
-2.62824e+07
-2.62019e+07
-2.61224e+07
-2.60434e+07
-2.59642e+07
-2.58849e+07
-2.58054e+07
-2.57257e+07
-2.5646e+07
-2.55662e+07
-2.54864e+07
-2.54067e+07
-2.53271e+07
-2.52476e+07
-2.51681e+07
-2.50887e+07
-2.50093e+07
-2.49299e+07
-2.48503e+07
-2.47705e+07
-2.46905e+07
-2.46092e+07
-2.45315e+07
-2.4453e+07
-2.43707e+07
-2.4289e+07
-2.42094e+07
-2.41311e+07
-2.40519e+07
-2.39732e+07
-2.3894e+07
-2.38148e+07
-2.37355e+07
-2.36561e+07
-2.35766e+07
-2.34971e+07
-2.34176e+07
-2.33382e+07
-2.32587e+07
-2.31792e+07
-2.30998e+07
-2.30203e+07
-2.29408e+07
-2.28611e+07
-2.27814e+07
-2.27018e+07
-2.26221e+07
-2.25425e+07
-2.24629e+07
-2.23832e+07
-2.23035e+07
-2.22237e+07
-2.21438e+07
-2.20639e+07
-2.19841e+07
-2.19045e+07
-2.1825e+07
-2.17455e+07
-2.1666e+07
-2.15865e+07
-2.15069e+07
-2.14272e+07
-2.13476e+07
-2.12679e+07
-2.11882e+07
-2.11086e+07
-2.10289e+07
-2.09493e+07
-2.08698e+07
-2.07902e+07
-2.07105e+07
-2.06308e+07
-2.0551e+07
-2.04712e+07
-2.03914e+07
-2.03117e+07
-2.02321e+07
-2.01525e+07
-2.00728e+07
-1.99931e+07
-1.99134e+07
-1.98338e+07
-1.97542e+07
-1.96748e+07
-1.95956e+07
-1.95163e+07
-1.9438e+07
-1.93567e+07
-1.9276e+07
-1.91981e+07
-1.91199e+07
-1.90401e+07
-1.89594e+07
-1.88795e+07
-1.87994e+07
-1.87197e+07
-1.86401e+07
-1.85606e+07
-1.84812e+07
-1.84017e+07
-1.83222e+07
-1.82427e+07
-1.8163e+07
-1.80832e+07
-1.80033e+07
-1.79233e+07
-1.78433e+07
-1.77633e+07
-1.76836e+07
-1.76041e+07
-1.75247e+07
-1.74452e+07
-1.73655e+07
-1.72858e+07
-1.7206e+07
-1.71263e+07
-1.70467e+07
-1.69672e+07
-1.68877e+07
-1.68081e+07
-1.67284e+07
-1.66487e+07
-1.65691e+07
-1.64893e+07
-1.64096e+07
-1.63298e+07
-1.62501e+07
-1.61704e+07
-1.60906e+07
-1.60107e+07
-1.59309e+07
-1.58513e+07
-1.57716e+07
-1.56918e+07
-1.5612e+07
-1.55322e+07
-1.54523e+07
-1.53725e+07
-1.52927e+07
-1.52129e+07
-1.51332e+07
-1.50535e+07
-1.49736e+07
-1.48937e+07
-1.48139e+07
-1.47341e+07
-1.46543e+07
-1.45745e+07
-1.44948e+07
-1.44154e+07
-1.4336e+07
-1.42563e+07
-1.41764e+07
-1.40967e+07
-1.4017e+07
-1.39373e+07
-1.38575e+07
-1.37778e+07
-1.36982e+07
-1.36187e+07
-1.3539e+07
-1.34593e+07
-1.33795e+07
-1.32998e+07
-1.32201e+07
-1.31405e+07
-1.30609e+07
-1.29813e+07
-1.29015e+07
-1.28216e+07
-1.27418e+07
-1.2662e+07
-1.25823e+07
-1.25025e+07
-1.24226e+07
-1.23428e+07
-1.22632e+07
-1.21837e+07
-1.21042e+07
-1.20247e+07
-1.19451e+07
-1.18655e+07
-1.17858e+07
-1.1706e+07
-1.16261e+07
-1.15464e+07
-1.14665e+07
-1.13865e+07
-1.13067e+07
-1.1227e+07
-1.11472e+07
-1.10674e+07
-1.09874e+07
-1.09075e+07
-1.08276e+07
-1.0748e+07
-1.06682e+07
-1.05883e+07
-1.05085e+07
-1.04287e+07
-1.03488e+07
-1.02689e+07
-1.01892e+07
-1.01094e+07
-1.00298e+07
-9.95e+06
-9.87019e+06
-9.79045e+06
-9.71067e+06
-9.63075e+06
-9.55083e+06
-9.4711e+06
-9.39134e+06
-9.31149e+06
-9.23159e+06
-9.15163e+06
-9.07169e+06
-8.99183e+06
-8.91189e+06
-8.83181e+06
-8.75188e+06
-8.67204e+06
-8.59215e+06
-8.51224e+06
-8.43231e+06
-8.3523e+06
-8.27244e+06
-8.19272e+06
-8.11284e+06
-8.033e+06
-7.95325e+06
-7.87351e+06
-7.79375e+06
-7.71399e+06
-7.63425e+06
-7.55457e+06
-7.4748e+06
-7.395e+06
-7.31528e+06
-7.23561e+06
-7.15592e+06
-7.07608e+06
-6.99627e+06
-6.91657e+06
-6.83687e+06
-6.75715e+06
-6.67746e+06
-6.59776e+06
-6.51803e+06
-6.43821e+06
-6.35821e+06
-6.27796e+06
-6.19768e+06
-6.11745e+06
-6.03732e+06
-5.95721e+06
-5.87719e+06
-5.79742e+06
-5.71785e+06
-5.63805e+06
-5.55817e+06
-5.47836e+06
-5.39839e+06
-5.31826e+06
-5.2381e+06
-5.15814e+06
-5.07834e+06
-4.9985e+06
-4.91853e+06
-4.83858e+06
-4.75851e+06
-4.67849e+06
-4.59826e+06
-4.51815e+06
-4.43836e+06
-4.35842e+06
-4.27828e+06
-4.19827e+06
-4.11809e+06
-4.03793e+06
-3.95815e+06
-3.87835e+06
-3.79815e+06
-3.71806e+06
-3.6382e+06
-3.55818e+06
-3.47817e+06
-3.39838e+06
-3.31839e+06
-3.23832e+06
-3.15841e+06
-3.07842e+06
-2.99839e+06
-2.91847e+06
-2.83856e+06
-2.75839e+06
-2.67841e+06
-2.59861e+06
-2.51842e+06
-2.43843e+06
-2.35887e+06
-2.27888e+06
-2.19893e+06
-2.11941e+06
-2.03974e+06
-1.96009e+06
-1.88106e+06
-1.80226e+06
-1.72341e+06
-1.64515e+06
-1.56762e+06
-1.49047e+06
-1.41444e+06
-1.33951e+06
-1.26551e+06
-1.19296e+06
-1.1226e+06
-1.05433e+06
-988710
-926295
-867984
-813476
-764467
-720499
-683808
-649823
-627445
-585608
-549065
-175283
-6.17387e+07
-5.31913e+07
-4.9742e+07
-4.77981e+07
-4.71788e+07
-4.68498e+07
-4.68441e+07
-4.69013e+07
-4.7023e+07
-4.7143e+07
-4.72601e+07
-4.73577e+07
-4.74372e+07
-4.74942e+07
-4.75342e+07
-4.75523e+07
-4.75568e+07
-4.75641e+07
-4.75013e+07
-4.74519e+07
-4.74447e+07
-4.73921e+07
-4.73452e+07
-4.72849e+07
-4.72238e+07
-4.71577e+07
-4.70898e+07
-4.70196e+07
-4.6948e+07
-4.6875e+07
-4.68013e+07
-4.67268e+07
-4.66518e+07
-4.65764e+07
-4.65007e+07
-4.64247e+07
-4.63487e+07
-4.62725e+07
-4.61963e+07
-4.61196e+07
-4.60431e+07
-4.59658e+07
-4.58882e+07
-4.58118e+07
-4.57346e+07
-4.56588e+07
-4.55819e+07
-4.5505e+07
-4.5428e+07
-4.53511e+07
-4.52742e+07
-4.51973e+07
-4.51206e+07
-4.50438e+07
-4.49672e+07
-4.48905e+07
-4.48138e+07
-4.47372e+07
-4.46606e+07
-4.4584e+07
-4.45073e+07
-4.44306e+07
-4.4354e+07
-4.42773e+07
-4.42006e+07
-4.41239e+07
-4.40473e+07
-4.39706e+07
-4.3894e+07
-4.3817e+07
-4.37407e+07
-4.36624e+07
-4.35869e+07
-4.35033e+07
-4.34304e+07
-4.3322e+07
-4.32601e+07
-4.32208e+07
-4.31284e+07
-4.30516e+07
-4.29759e+07
-4.28975e+07
-4.28201e+07
-4.27426e+07
-4.26659e+07
-4.25892e+07
-4.25127e+07
-4.2436e+07
-4.23592e+07
-4.22825e+07
-4.22056e+07
-4.21287e+07
-4.20519e+07
-4.19752e+07
-4.18986e+07
-4.18215e+07
-4.17453e+07
-4.16685e+07
-4.15923e+07
-4.15154e+07
-4.14386e+07
-4.13619e+07
-4.12851e+07
-4.12085e+07
-4.11319e+07
-4.10553e+07
-4.09788e+07
-4.09023e+07
-4.08257e+07
-4.07491e+07
-4.06723e+07
-4.05956e+07
-4.05189e+07
-4.04422e+07
-4.03656e+07
-4.0289e+07
-4.02124e+07
-4.01358e+07
-4.00593e+07
-3.99827e+07
-3.99061e+07
-3.98295e+07
-3.97528e+07
-3.96761e+07
-3.95995e+07
-3.95228e+07
-3.9446e+07
-3.93693e+07
-3.92926e+07
-3.92159e+07
-3.91392e+07
-3.90625e+07
-3.89857e+07
-3.8909e+07
-3.88323e+07
-3.87556e+07
-3.86788e+07
-3.86022e+07
-3.85254e+07
-3.84487e+07
-3.8372e+07
-3.82953e+07
-3.82185e+07
-3.81417e+07
-3.8065e+07
-3.79882e+07
-3.79116e+07
-3.78348e+07
-3.77586e+07
-3.7682e+07
-3.76064e+07
-3.75303e+07
-3.7454e+07
-3.73858e+07
-3.7304e+07
-3.72272e+07
-3.71513e+07
-3.70731e+07
-3.69964e+07
-3.69159e+07
-3.68409e+07
-3.6763e+07
-3.66858e+07
-3.66087e+07
-3.65316e+07
-3.64549e+07
-3.63781e+07
-3.63015e+07
-3.62247e+07
-3.61481e+07
-3.60714e+07
-3.59947e+07
-3.5918e+07
-3.58413e+07
-3.57646e+07
-3.56878e+07
-3.5611e+07
-3.55342e+07
-3.54575e+07
-3.53809e+07
-3.53049e+07
-3.52283e+07
-3.51517e+07
-3.50747e+07
-3.49979e+07
-3.49213e+07
-3.48446e+07
-3.4768e+07
-3.46913e+07
-3.46147e+07
-3.4538e+07
-3.44615e+07
-3.43849e+07
-3.43084e+07
-3.42318e+07
-3.41553e+07
-3.40787e+07
-3.40022e+07
-3.39256e+07
-3.38491e+07
-3.37726e+07
-3.3696e+07
-3.36194e+07
-3.35428e+07
-3.34663e+07
-3.33897e+07
-3.3313e+07
-3.32363e+07
-3.31597e+07
-3.3083e+07
-3.30063e+07
-3.29297e+07
-3.28532e+07
-3.27768e+07
-3.27001e+07
-3.26234e+07
-3.25463e+07
-3.24691e+07
-3.23923e+07
-3.23155e+07
-3.22393e+07
-3.21625e+07
-3.20857e+07
-3.20087e+07
-3.19317e+07
-3.18549e+07
-3.1778e+07
-3.17012e+07
-3.16244e+07
-3.15477e+07
-3.14709e+07
-3.13942e+07
-3.13174e+07
-3.12407e+07
-3.1164e+07
-3.10873e+07
-3.10105e+07
-3.09338e+07
-3.08571e+07
-3.07804e+07
-3.07037e+07
-3.0627e+07
-3.05503e+07
-3.04737e+07
-3.0397e+07
-3.03202e+07
-3.02435e+07
-3.01668e+07
-3.009e+07
-3.00132e+07
-2.99363e+07
-2.98596e+07
-2.97829e+07
-2.97062e+07
-2.96297e+07
-2.95532e+07
-2.94768e+07
-2.94003e+07
-2.93237e+07
-2.92471e+07
-2.91703e+07
-2.90936e+07
-2.90169e+07
-2.89403e+07
-2.88637e+07
-2.8787e+07
-2.87104e+07
-2.86339e+07
-2.85574e+07
-2.84809e+07
-2.84043e+07
-2.83277e+07
-2.8251e+07
-2.81743e+07
-2.80976e+07
-2.80209e+07
-2.79442e+07
-2.78675e+07
-2.77907e+07
-2.7714e+07
-2.76373e+07
-2.75606e+07
-2.74839e+07
-2.74073e+07
-2.73307e+07
-2.7254e+07
-2.71773e+07
-2.71006e+07
-2.70239e+07
-2.69471e+07
-2.68703e+07
-2.67935e+07
-2.67167e+07
-2.66399e+07
-2.65632e+07
-2.64866e+07
-2.641e+07
-2.63333e+07
-2.62565e+07
-2.61794e+07
-2.61027e+07
-2.60261e+07
-2.59495e+07
-2.5873e+07
-2.57964e+07
-2.57199e+07
-2.56434e+07
-2.55671e+07
-2.54905e+07
-2.54138e+07
-2.53365e+07
-2.52596e+07
-2.51828e+07
-2.51062e+07
-2.50298e+07
-2.49532e+07
-2.48765e+07
-2.47997e+07
-2.47229e+07
-2.4646e+07
-2.45692e+07
-2.44924e+07
-2.44157e+07
-2.4339e+07
-2.42624e+07
-2.41859e+07
-2.41093e+07
-2.40328e+07
-2.39559e+07
-2.38794e+07
-2.38021e+07
-2.37252e+07
-2.36482e+07
-2.35664e+07
-2.34927e+07
-2.34167e+07
-2.33389e+07
-2.32635e+07
-2.31867e+07
-2.31107e+07
-2.30341e+07
-2.29578e+07
-2.28812e+07
-2.28047e+07
-2.27281e+07
-2.26515e+07
-2.25748e+07
-2.24982e+07
-2.24216e+07
-2.23449e+07
-2.22683e+07
-2.21917e+07
-2.2115e+07
-2.20382e+07
-2.19614e+07
-2.18846e+07
-2.18078e+07
-2.17311e+07
-2.16543e+07
-2.15775e+07
-2.15007e+07
-2.14238e+07
-2.13469e+07
-2.127e+07
-2.11931e+07
-2.11164e+07
-2.10397e+07
-2.0963e+07
-2.08862e+07
-2.08096e+07
-2.07329e+07
-2.06561e+07
-2.05793e+07
-2.05025e+07
-2.04257e+07
-2.03489e+07
-2.02721e+07
-2.01953e+07
-2.01186e+07
-2.00418e+07
-1.9965e+07
-1.98882e+07
-1.98113e+07
-1.97344e+07
-1.96575e+07
-1.95807e+07
-1.95039e+07
-1.94271e+07
-1.93503e+07
-1.92735e+07
-1.91966e+07
-1.91199e+07
-1.90431e+07
-1.89666e+07
-1.88897e+07
-1.88135e+07
-1.87369e+07
-1.86602e+07
-1.85872e+07
-1.85079e+07
-1.84304e+07
-1.83544e+07
-1.82766e+07
-1.81999e+07
-1.81228e+07
-1.80461e+07
-1.79693e+07
-1.78927e+07
-1.7816e+07
-1.77394e+07
-1.76628e+07
-1.7586e+07
-1.75092e+07
-1.74323e+07
-1.73553e+07
-1.72783e+07
-1.72012e+07
-1.71241e+07
-1.70472e+07
-1.69705e+07
-1.68939e+07
-1.68172e+07
-1.67404e+07
-1.66636e+07
-1.65867e+07
-1.65099e+07
-1.64331e+07
-1.63564e+07
-1.62798e+07
-1.6203e+07
-1.61262e+07
-1.60494e+07
-1.59726e+07
-1.58958e+07
-1.58189e+07
-1.5742e+07
-1.56651e+07
-1.55883e+07
-1.55115e+07
-1.54345e+07
-1.53575e+07
-1.52807e+07
-1.5204e+07
-1.51271e+07
-1.50501e+07
-1.49732e+07
-1.48963e+07
-1.48193e+07
-1.47424e+07
-1.46654e+07
-1.45886e+07
-1.45118e+07
-1.44348e+07
-1.43578e+07
-1.42809e+07
-1.42041e+07
-1.41271e+07
-1.40502e+07
-1.39733e+07
-1.38967e+07
-1.382e+07
-1.37432e+07
-1.36662e+07
-1.35893e+07
-1.35127e+07
-1.34358e+07
-1.33589e+07
-1.3282e+07
-1.32052e+07
-1.31285e+07
-1.30518e+07
-1.29749e+07
-1.2898e+07
-1.28212e+07
-1.27444e+07
-1.26675e+07
-1.25908e+07
-1.25141e+07
-1.24372e+07
-1.23602e+07
-1.22833e+07
-1.22063e+07
-1.21295e+07
-1.20527e+07
-1.19757e+07
-1.18987e+07
-1.1822e+07
-1.17454e+07
-1.16687e+07
-1.1592e+07
-1.15153e+07
-1.14385e+07
-1.13618e+07
-1.12848e+07
-1.12078e+07
-1.11309e+07
-1.1054e+07
-1.09769e+07
-1.08999e+07
-1.08229e+07
-1.07461e+07
-1.06692e+07
-1.0592e+07
-1.05149e+07
-1.04379e+07
-1.03611e+07
-1.02842e+07
-1.02071e+07
-1.01301e+07
-1.00532e+07
-9.97624e+06
-9.89924e+06
-9.82231e+06
-9.74543e+06
-9.66866e+06
-9.59179e+06
-9.51479e+06
-9.43794e+06
-9.36116e+06
-9.2841e+06
-9.20701e+06
-9.13018e+06
-9.05329e+06
-8.97635e+06
-8.89931e+06
-8.82218e+06
-8.74511e+06
-8.66817e+06
-8.59119e+06
-8.51391e+06
-8.43678e+06
-8.35985e+06
-8.28285e+06
-8.20583e+06
-8.12882e+06
-8.05163e+06
-7.97461e+06
-7.89786e+06
-7.82085e+06
-7.74382e+06
-7.66695e+06
-7.59012e+06
-7.51324e+06
-7.4363e+06
-7.35936e+06
-7.2826e+06
-7.20579e+06
-7.1288e+06
-7.05185e+06
-6.97505e+06
-6.8983e+06
-6.82135e+06
-6.7444e+06
-6.66751e+06
-6.59067e+06
-6.5138e+06
-6.43696e+06
-6.36014e+06
-6.28319e+06
-6.20624e+06
-6.12923e+06
-6.05194e+06
-5.97461e+06
-5.89731e+06
-5.82018e+06
-5.74307e+06
-5.66582e+06
-5.5888e+06
-5.5122e+06
-5.43525e+06
-5.35806e+06
-5.28117e+06
-5.20424e+06
-5.12707e+06
-5.04977e+06
-4.97264e+06
-4.89568e+06
-4.81873e+06
-4.74161e+06
-4.66452e+06
-4.58731e+06
-4.51028e+06
-4.4329e+06
-4.35555e+06
-4.27867e+06
-4.20156e+06
-4.12421e+06
-4.04716e+06
-3.96995e+06
-3.89244e+06
-3.81557e+06
-3.73882e+06
-3.66137e+06
-3.58417e+06
-3.50731e+06
-3.43008e+06
-3.35291e+06
-3.27609e+06
-3.19906e+06
-3.12185e+06
-3.04477e+06
-2.96778e+06
-2.89061e+06
-2.81355e+06
-2.73668e+06
-2.6593e+06
-2.58213e+06
-2.50538e+06
-2.42793e+06
-2.35067e+06
-2.27415e+06
-2.197e+06
-2.11989e+06
-2.04341e+06
-1.96656e+06
-1.88959e+06
-1.81336e+06
-1.73762e+06
-1.66155e+06
-1.5859e+06
-1.51112e+06
-1.43655e+06
-1.36302e+06
-1.29063e+06
-1.21908e+06
-1.14849e+06
-1.0798e+06
-1.01286e+06
-947885
-885227
-825829
-768353
-714146
-661869
-611782
-556629
-498163
-400179
-243889
182507
-6.07723e+07
-5.36878e+07
-4.99923e+07
-4.76735e+07
-4.67146e+07
-4.6128e+07
-4.59304e+07
-4.58449e+07
-4.58614e+07
-4.59031e+07
-4.59621e+07
-4.60164e+07
-4.60641e+07
-4.60975e+07
-4.61226e+07
-4.61256e+07
-4.6156e+07
-4.60968e+07
-4.63337e+07
-4.60344e+07
-4.60348e+07
-4.59504e+07
-4.59031e+07
-4.58418e+07
-4.57821e+07
-4.57177e+07
-4.5652e+07
-4.5584e+07
-4.55147e+07
-4.54441e+07
-4.53728e+07
-4.53007e+07
-4.52281e+07
-4.5155e+07
-4.50818e+07
-4.50082e+07
-4.49345e+07
-4.48606e+07
-4.47868e+07
-4.47123e+07
-4.46386e+07
-4.45636e+07
-4.44899e+07
-4.44163e+07
-4.43394e+07
-4.42657e+07
-4.4191e+07
-4.41165e+07
-4.40421e+07
-4.39675e+07
-4.38932e+07
-4.38187e+07
-4.37443e+07
-4.36699e+07
-4.35956e+07
-4.35212e+07
-4.34469e+07
-4.33726e+07
-4.32983e+07
-4.3224e+07
-4.31497e+07
-4.30754e+07
-4.3001e+07
-4.29267e+07
-4.28524e+07
-4.2778e+07
-4.27037e+07
-4.26294e+07
-4.25551e+07
-4.24805e+07
-4.24066e+07
-4.23309e+07
-4.226e+07
-4.21799e+07
-4.21394e+07
-4.20251e+07
-4.21993e+07
-4.18776e+07
-4.18441e+07
-4.17361e+07
-4.1665e+07
-4.15891e+07
-4.15145e+07
-4.14394e+07
-4.1365e+07
-4.12903e+07
-4.12161e+07
-4.11416e+07
-4.10671e+07
-4.09927e+07
-4.09181e+07
-4.08437e+07
-4.0769e+07
-4.06948e+07
-4.06204e+07
-4.05459e+07
-4.04729e+07
-4.03974e+07
-4.03237e+07
-4.02494e+07
-4.01748e+07
-4.01006e+07
-4.0026e+07
-3.99518e+07
-3.98774e+07
-3.98032e+07
-3.97289e+07
-3.96546e+07
-3.95803e+07
-3.95061e+07
-3.94317e+07
-3.93574e+07
-3.9283e+07
-3.92087e+07
-3.91344e+07
-3.90602e+07
-3.89859e+07
-3.89117e+07
-3.88375e+07
-3.87632e+07
-3.86889e+07
-3.86147e+07
-3.85403e+07
-3.8466e+07
-3.83916e+07
-3.83173e+07
-3.82429e+07
-3.81685e+07
-3.80941e+07
-3.80198e+07
-3.79454e+07
-3.7871e+07
-3.77966e+07
-3.77222e+07
-3.76478e+07
-3.75735e+07
-3.74991e+07
-3.74247e+07
-3.73504e+07
-3.7276e+07
-3.72016e+07
-3.71272e+07
-3.70528e+07
-3.69784e+07
-3.6904e+07
-3.68296e+07
-3.67553e+07
-3.66809e+07
-3.66069e+07
-3.65322e+07
-3.64585e+07
-3.6384e+07
-3.63067e+07
-3.62464e+07
-3.61705e+07
-3.60901e+07
-3.60161e+07
-3.59428e+07
-3.58759e+07
-3.57902e+07
-3.5715e+07
-3.56411e+07
-3.5566e+07
-3.54919e+07
-3.54172e+07
-3.53429e+07
-3.52685e+07
-3.51942e+07
-3.51198e+07
-3.50455e+07
-3.49711e+07
-3.48968e+07
-3.48225e+07
-3.47481e+07
-3.46737e+07
-3.45994e+07
-3.4525e+07
-3.44507e+07
-3.43763e+07
-3.43019e+07
-3.42279e+07
-3.41524e+07
-3.40788e+07
-3.40047e+07
-3.39302e+07
-3.38561e+07
-3.37816e+07
-3.37075e+07
-3.36331e+07
-3.35589e+07
-3.34846e+07
-3.34104e+07
-3.33362e+07
-3.3262e+07
-3.31877e+07
-3.31135e+07
-3.30393e+07
-3.2965e+07
-3.28908e+07
-3.28166e+07
-3.27424e+07
-3.26682e+07
-3.25939e+07
-3.25197e+07
-3.24454e+07
-3.23711e+07
-3.22968e+07
-3.22225e+07
-3.21482e+07
-3.20739e+07
-3.19995e+07
-3.19253e+07
-3.1851e+07
-3.17769e+07
-3.17024e+07
-3.16282e+07
-3.15535e+07
-3.14793e+07
-3.14055e+07
-3.13298e+07
-3.12557e+07
-3.11811e+07
-3.11067e+07
-3.10322e+07
-3.09576e+07
-3.08831e+07
-3.08087e+07
-3.07343e+07
-3.06598e+07
-3.05854e+07
-3.05111e+07
-3.04367e+07
-3.03623e+07
-3.02878e+07
-3.02135e+07
-3.01391e+07
-3.00647e+07
-2.99903e+07
-2.99159e+07
-2.98416e+07
-2.97672e+07
-2.96928e+07
-2.96184e+07
-2.95441e+07
-2.94698e+07
-2.93954e+07
-2.9321e+07
-2.92466e+07
-2.91722e+07
-2.90977e+07
-2.90232e+07
-2.89488e+07
-2.88745e+07
-2.88002e+07
-2.87259e+07
-2.86517e+07
-2.85775e+07
-2.85033e+07
-2.8429e+07
-2.83549e+07
-2.82805e+07
-2.82063e+07
-2.81319e+07
-2.80576e+07
-2.79834e+07
-2.79091e+07
-2.78349e+07
-2.77606e+07
-2.76864e+07
-2.76122e+07
-2.75379e+07
-2.74636e+07
-2.73893e+07
-2.73149e+07
-2.72405e+07
-2.71662e+07
-2.70918e+07
-2.70175e+07
-2.69431e+07
-2.68687e+07
-2.67943e+07
-2.672e+07
-2.66457e+07
-2.65713e+07
-2.6497e+07
-2.64227e+07
-2.63483e+07
-2.6274e+07
-2.61996e+07
-2.61252e+07
-2.60507e+07
-2.59763e+07
-2.59018e+07
-2.58274e+07
-2.57529e+07
-2.56786e+07
-2.56042e+07
-2.55296e+07
-2.54556e+07
-2.53811e+07
-2.53068e+07
-2.52325e+07
-2.51582e+07
-2.5084e+07
-2.50097e+07
-2.49354e+07
-2.48611e+07
-2.4787e+07
-2.47124e+07
-2.46382e+07
-2.45636e+07
-2.44896e+07
-2.44151e+07
-2.43405e+07
-2.42664e+07
-2.41919e+07
-2.41177e+07
-2.40431e+07
-2.39687e+07
-2.38942e+07
-2.38198e+07
-2.37454e+07
-2.3671e+07
-2.35966e+07
-2.35224e+07
-2.34482e+07
-2.33739e+07
-2.32997e+07
-2.32252e+07
-2.31512e+07
-2.30765e+07
-2.30023e+07
-2.29297e+07
-2.28468e+07
-2.27727e+07
-2.27031e+07
-2.26271e+07
-2.25543e+07
-2.24796e+07
-2.24059e+07
-2.23316e+07
-2.22575e+07
-2.21833e+07
-2.21091e+07
-2.20349e+07
-2.19606e+07
-2.18862e+07
-2.18119e+07
-2.17377e+07
-2.16634e+07
-2.1589e+07
-2.15147e+07
-2.14404e+07
-2.1366e+07
-2.12915e+07
-2.1217e+07
-2.11425e+07
-2.10682e+07
-2.09937e+07
-2.09192e+07
-2.08448e+07
-2.07703e+07
-2.06958e+07
-2.06213e+07
-2.05469e+07
-2.04724e+07
-2.0398e+07
-2.03237e+07
-2.02492e+07
-2.01748e+07
-2.01004e+07
-2.0026e+07
-1.99516e+07
-1.98771e+07
-1.98026e+07
-1.97282e+07
-1.96537e+07
-1.95792e+07
-1.95048e+07
-1.94304e+07
-1.9356e+07
-1.92815e+07
-1.9207e+07
-1.91324e+07
-1.90579e+07
-1.89834e+07
-1.89089e+07
-1.88345e+07
-1.87601e+07
-1.86856e+07
-1.8611e+07
-1.85366e+07
-1.84621e+07
-1.83879e+07
-1.83133e+07
-1.82391e+07
-1.81645e+07
-1.80886e+07
-1.80207e+07
-1.79459e+07
-1.78676e+07
-1.77945e+07
-1.77188e+07
-1.76447e+07
-1.75699e+07
-1.74956e+07
-1.74213e+07
-1.7347e+07
-1.72727e+07
-1.71983e+07
-1.7124e+07
-1.70495e+07
-1.6975e+07
-1.69005e+07
-1.68259e+07
-1.67512e+07
-1.66765e+07
-1.66019e+07
-1.65273e+07
-1.64528e+07
-1.63785e+07
-1.63042e+07
-1.62297e+07
-1.61552e+07
-1.60807e+07
-1.60063e+07
-1.59319e+07
-1.58574e+07
-1.5783e+07
-1.57087e+07
-1.56342e+07
-1.55597e+07
-1.54853e+07
-1.54108e+07
-1.53363e+07
-1.52618e+07
-1.51872e+07
-1.51127e+07
-1.50383e+07
-1.49637e+07
-1.48891e+07
-1.48145e+07
-1.47401e+07
-1.46657e+07
-1.45911e+07
-1.45165e+07
-1.44419e+07
-1.43673e+07
-1.42928e+07
-1.42182e+07
-1.41436e+07
-1.40692e+07
-1.39947e+07
-1.392e+07
-1.38454e+07
-1.37709e+07
-1.36964e+07
-1.36218e+07
-1.35472e+07
-1.34729e+07
-1.33983e+07
-1.33239e+07
-1.32494e+07
-1.31748e+07
-1.31005e+07
-1.3026e+07
-1.29515e+07
-1.28769e+07
-1.28024e+07
-1.27281e+07
-1.26537e+07
-1.25791e+07
-1.25045e+07
-1.243e+07
-1.23556e+07
-1.22811e+07
-1.22067e+07
-1.21323e+07
-1.20578e+07
-1.19832e+07
-1.19086e+07
-1.1834e+07
-1.17595e+07
-1.1685e+07
-1.16105e+07
-1.15359e+07
-1.14614e+07
-1.13872e+07
-1.13129e+07
-1.12385e+07
-1.11641e+07
-1.10896e+07
-1.10152e+07
-1.09407e+07
-1.0866e+07
-1.07914e+07
-1.07169e+07
-1.06422e+07
-1.05675e+07
-1.04928e+07
-1.04182e+07
-1.03437e+07
-1.0269e+07
-1.01941e+07
-1.01194e+07
-1.00449e+07
-9.97049e+06
-9.89572e+06
-9.82092e+06
-9.74634e+06
-9.67182e+06
-9.59725e+06
-9.52262e+06
-9.44798e+06
-9.37354e+06
-9.29914e+06
-9.22456e+06
-9.14994e+06
-9.07548e+06
-9.00089e+06
-8.92617e+06
-8.85167e+06
-8.77711e+06
-8.70252e+06
-8.62785e+06
-8.55307e+06
-8.47837e+06
-8.40374e+06
-8.32912e+06
-8.25426e+06
-8.17941e+06
-8.1048e+06
-8.0302e+06
-7.95551e+06
-7.88083e+06
-7.80601e+06
-7.73127e+06
-7.65688e+06
-7.58231e+06
-7.50759e+06
-7.43295e+06
-7.35849e+06
-7.28406e+06
-7.20947e+06
-7.13477e+06
-7.06029e+06
-6.98593e+06
-6.91135e+06
-6.83669e+06
-6.76213e+06
-6.68771e+06
-6.61322e+06
-6.53872e+06
-6.46406e+06
-6.38946e+06
-6.31502e+06
-6.24052e+06
-6.16611e+06
-6.09151e+06
-6.01676e+06
-5.94213e+06
-5.86735e+06
-5.79241e+06
-5.71747e+06
-5.64266e+06
-5.56799e+06
-5.49317e+06
-5.41832e+06
-5.344e+06
-5.2696e+06
-5.19474e+06
-5.12002e+06
-5.0454e+06
-4.97074e+06
-4.89594e+06
-4.8211e+06
-4.74633e+06
-4.67174e+06
-4.59705e+06
-4.52242e+06
-4.44746e+06
-4.37264e+06
-4.29781e+06
-4.22279e+06
-4.14813e+06
-4.07335e+06
-3.99842e+06
-3.92359e+06
-3.84892e+06
-3.77379e+06
-3.69892e+06
-3.62461e+06
-3.5498e+06
-3.47486e+06
-3.40034e+06
-3.32546e+06
-3.25055e+06
-3.17611e+06
-3.10151e+06
-3.02675e+06
-2.9519e+06
-2.87731e+06
-2.80272e+06
-2.7278e+06
-2.65321e+06
-2.57841e+06
-2.50342e+06
-2.42906e+06
-2.35428e+06
-2.27907e+06
-2.20465e+06
-2.13011e+06
-2.05535e+06
-1.98111e+06
-1.90675e+06
-1.8322e+06
-1.758e+06
-1.6846e+06
-1.61099e+06
-1.53752e+06
-1.46501e+06
-1.39271e+06
-1.32103e+06
-1.2504e+06
-1.18089e+06
-1.11218e+06
-1.0446e+06
-978604
-914416
-851431
-790990
-731674
-673637
-615124
-555858
-486154
-406584
-276325
-84909.7
339771
-5.89149e+07
-5.30243e+07
-4.95889e+07
-4.72235e+07
-4.60329e+07
-4.52484e+07
-4.48734e+07
-4.46504e+07
-4.45595e+07
-4.45193e+07
-4.45161e+07
-4.45235e+07
-4.45357e+07
-4.45427e+07
-4.45462e+07
-4.4535e+07
-4.45259e+07
-4.44679e+07
-4.44453e+07
-4.44502e+07
-4.43922e+07
-4.43396e+07
-4.42893e+07
-4.42314e+07
-4.41732e+07
-4.4111e+07
-4.40474e+07
-4.39818e+07
-4.3915e+07
-4.3847e+07
-4.37782e+07
-4.37088e+07
-4.36388e+07
-4.35685e+07
-4.34978e+07
-4.34268e+07
-4.33558e+07
-4.32844e+07
-4.32133e+07
-4.31412e+07
-4.30707e+07
-4.29982e+07
-4.29285e+07
-4.28599e+07
-4.27824e+07
-4.27104e+07
-4.26385e+07
-4.25665e+07
-4.2495e+07
-4.24231e+07
-4.23514e+07
-4.22796e+07
-4.22079e+07
-4.21361e+07
-4.20644e+07
-4.19927e+07
-4.1921e+07
-4.18493e+07
-4.17776e+07
-4.17059e+07
-4.16342e+07
-4.15625e+07
-4.14907e+07
-4.1419e+07
-4.13473e+07
-4.12756e+07
-4.12039e+07
-4.11321e+07
-4.10604e+07
-4.09884e+07
-4.0917e+07
-4.08442e+07
-4.0774e+07
-4.06999e+07
-4.06324e+07
-4.05737e+07
-4.04633e+07
-4.03839e+07
-4.03453e+07
-4.02663e+07
-4.01958e+07
-4.01276e+07
-4.00566e+07
-3.99843e+07
-3.99127e+07
-3.98403e+07
-3.97686e+07
-3.96965e+07
-3.96247e+07
-3.95528e+07
-3.94808e+07
-3.94091e+07
-3.93369e+07
-3.92654e+07
-3.91934e+07
-3.91215e+07
-3.90521e+07
-3.89781e+07
-3.89074e+07
-3.8836e+07
-3.87638e+07
-3.86924e+07
-3.86203e+07
-3.85487e+07
-3.84768e+07
-3.84052e+07
-3.83334e+07
-3.82618e+07
-3.819e+07
-3.81184e+07
-3.80466e+07
-3.79749e+07
-3.79033e+07
-3.78316e+07
-3.77599e+07
-3.76882e+07
-3.76166e+07
-3.7545e+07
-3.74733e+07
-3.74017e+07
-3.733e+07
-3.72583e+07
-3.71866e+07
-3.71149e+07
-3.70431e+07
-3.69714e+07
-3.68996e+07
-3.68279e+07
-3.67561e+07
-3.66844e+07
-3.66126e+07
-3.65409e+07
-3.64691e+07
-3.63973e+07
-3.63255e+07
-3.62538e+07
-3.6182e+07
-3.61103e+07
-3.60385e+07
-3.59668e+07
-3.5895e+07
-3.58232e+07
-3.57515e+07
-3.56797e+07
-3.56079e+07
-3.55361e+07
-3.54644e+07
-3.53924e+07
-3.53211e+07
-3.52478e+07
-3.51777e+07
-3.50998e+07
-3.50348e+07
-3.49959e+07
-3.4898e+07
-3.4816e+07
-3.47493e+07
-3.46839e+07
-3.46162e+07
-3.45285e+07
-3.44594e+07
-3.43884e+07
-3.43163e+07
-3.42452e+07
-3.41732e+07
-3.41016e+07
-3.40298e+07
-3.39581e+07
-3.38864e+07
-3.38147e+07
-3.37429e+07
-3.36713e+07
-3.35995e+07
-3.35278e+07
-3.34561e+07
-3.33845e+07
-3.33127e+07
-3.32411e+07
-3.31694e+07
-3.30974e+07
-3.3026e+07
-3.29517e+07
-3.2881e+07
-3.28102e+07
-3.27383e+07
-3.26669e+07
-3.25951e+07
-3.25237e+07
-3.24519e+07
-3.23804e+07
-3.23087e+07
-3.22371e+07
-3.21655e+07
-3.20939e+07
-3.20222e+07
-3.19506e+07
-3.1879e+07
-3.18073e+07
-3.17357e+07
-3.16641e+07
-3.15925e+07
-3.15209e+07
-3.14492e+07
-3.13775e+07
-3.13059e+07
-3.12342e+07
-3.11625e+07
-3.10908e+07
-3.10191e+07
-3.09475e+07
-3.08757e+07
-3.08042e+07
-3.07322e+07
-3.06607e+07
-3.05887e+07
-3.05175e+07
-3.04453e+07
-3.03744e+07
-3.03036e+07
-3.02293e+07
-3.01577e+07
-3.00857e+07
-3.00138e+07
-2.99421e+07
-2.98701e+07
-2.97984e+07
-2.97266e+07
-2.96548e+07
-2.9583e+07
-2.95112e+07
-2.94395e+07
-2.93677e+07
-2.92959e+07
-2.92241e+07
-2.91524e+07
-2.90806e+07
-2.90088e+07
-2.8937e+07
-2.88652e+07
-2.87935e+07
-2.87217e+07
-2.86499e+07
-2.85782e+07
-2.85064e+07
-2.84347e+07
-2.83629e+07
-2.82911e+07
-2.82193e+07
-2.81476e+07
-2.80757e+07
-2.80039e+07
-2.79321e+07
-2.78604e+07
-2.77886e+07
-2.7717e+07
-2.76452e+07
-2.75736e+07
-2.7502e+07
-2.74302e+07
-2.73588e+07
-2.72872e+07
-2.72156e+07
-2.71439e+07
-2.70723e+07
-2.70006e+07
-2.69289e+07
-2.68573e+07
-2.67856e+07
-2.6714e+07
-2.66424e+07
-2.65707e+07
-2.6499e+07
-2.64273e+07
-2.63556e+07
-2.62838e+07
-2.6212e+07
-2.61403e+07
-2.60685e+07
-2.59968e+07
-2.5925e+07
-2.58533e+07
-2.57816e+07
-2.57099e+07
-2.56381e+07
-2.55664e+07
-2.54946e+07
-2.54228e+07
-2.53511e+07
-2.52793e+07
-2.52075e+07
-2.51357e+07
-2.50639e+07
-2.4992e+07
-2.49203e+07
-2.48483e+07
-2.47766e+07
-2.47046e+07
-2.46325e+07
-2.45616e+07
-2.44898e+07
-2.44182e+07
-2.43465e+07
-2.42748e+07
-2.42031e+07
-2.41314e+07
-2.40597e+07
-2.39879e+07
-2.39162e+07
-2.38438e+07
-2.37724e+07
-2.37008e+07
-2.36302e+07
-2.3558e+07
-2.34857e+07
-2.34141e+07
-2.3342e+07
-2.32704e+07
-2.31985e+07
-2.31268e+07
-2.30549e+07
-2.29831e+07
-2.29113e+07
-2.28396e+07
-2.27678e+07
-2.26962e+07
-2.26245e+07
-2.25528e+07
-2.24814e+07
-2.24094e+07
-2.23387e+07
-2.22659e+07
-2.21981e+07
-2.2122e+07
-2.20299e+07
-2.19739e+07
-2.191e+07
-2.18333e+07
-2.17632e+07
-2.16904e+07
-2.16192e+07
-2.15474e+07
-2.14759e+07
-2.14042e+07
-2.13326e+07
-2.1261e+07
-2.11893e+07
-2.11176e+07
-2.10459e+07
-2.09742e+07
-2.09025e+07
-2.08308e+07
-2.0759e+07
-2.06873e+07
-2.06155e+07
-2.05437e+07