/*--------------------------------*- C++ -*----------------------------------*\
| =========                 |                                                 |
| \\      /  F ield         | foam-extend: Open Source CFD                    |
|  \\    /   O peration     | Version:     4.0                                |
|   \\  /    A nd           | Web:         http://www.foam-extend.org         |
|    \\/     M anipulation  |                                                 |
\*---------------------------------------------------------------------------*/
FoamFile
{
    version     2.0;
    format      ascii;
    class       volSymmTensorField;
    location    "1";
    object      sigma;
}
// * * * * * * * * * * * * * * * * * * * * * * * * * * * * * * * * * * * * * //

dimensions      [1 -1 -2 0 0 0 0];

internalField   nonuniform List<symmTensor> 
40960
(
(-1.45054e+08 -1.4194e+07 -5.94981e-07 -8.24656e+06 1.91951e-07 -4.59902e+07)
(-1.18469e+08 -3.97038e+06 -1.40303e-06 -472464 -6.25457e-07 -3.56825e+07)
(-1.13579e+08 -1.08072e+06 -1.51346e-06 -174404 -8.9922e-08 -3.41259e+07)
(-1.10001e+08 -347746 5.87322e-06 -3869.19 2.10527e-06 -3.30014e+07)
(-1.0982e+08 12078.8 -1.19012e-06 -68732.3 -8.49574e-07 -3.29666e+07)
(-1.09861e+08 118662 -4.07258e-06 -96427.7 -1.25078e-06 -3.29871e+07)
(-1.10445e+08 156641 1.43892e-06 -133581 5.86911e-07 -3.31736e+07)
(-1.11003e+08 155960 -1.55871e-06 -156275 -5.896e-07 -3.33478e+07)
(-1.1159e+08 141136 1.69527e-06 -175902 5.92487e-07 -3.35299e+07)
(-1.12092e+08 120632 -1.84367e-06 -189125 -5.94994e-07 -3.36842e+07)
(-1.12525e+08 98877.3 -1.49445e-06 -199640 -6.48969e-07 -3.38173e+07)
(-1.1287e+08 78016.7 3.24662e-06 -207154 8.98374e-07 -3.3923e+07)
(-1.1314e+08 58924.1 5.84693e-06 -212985 2.05558e-06 -3.4006e+07)
(-1.13336e+08 41945.5 -1.09621e-06 -216985 2.40592e-08 -3.40658e+07)
(-1.13474e+08 27135.2 -7.05995e-08 -220954 -3.68142e-07 -3.41084e+07)
(-1.13546e+08 13102.3 1.41071e-06 -221412 7.13354e-07 -3.41302e+07)
(-1.13575e+08 1794.99 -3.24014e-06 -229500 3.10692e-07 -3.41413e+07)
(-1.13562e+08 -9451.53 -6.02944e-06 -215816 -2.20662e-06 -3.41335e+07)
(-1.13452e+08 -35839.7 -3.38557e-06 -198982 -6.02119e-07 -3.40951e+07)
(-1.13403e+08 -14888.2 -3.75045e-07 -236602 5.91518e-07 -3.4092e+07)
(-1.13343e+08 -25128.5 -4.22436e-06 -233345 -2.81032e-06 -3.40729e+07)
(-1.13226e+08 -26359.2 2.92383e-06 -226346 -2.23368e-06 -3.40356e+07)
(-1.13115e+08 -31014.9 1.57635e-05 -227031 3.12606e-06 -3.40027e+07)
(-1.12972e+08 -34126 9.93012e-06 -226048 3.57588e-06 -3.39594e+07)
(-1.12826e+08 -36410.4 1.40174e-06 -226030 1.11545e-06 -3.39157e+07)
(-1.12668e+08 -38183.7 -1.39977e-06 -225649 -1.16001e-06 -3.38682e+07)
(-1.12506e+08 -39503.4 7.14582e-06 -225392 -2.72387e-06 -3.38193e+07)
(-1.12337e+08 -40527.7 1.88703e-05 -225085 3.3344e-06 -3.37687e+07)
(-1.12166e+08 -41311.3 7.26032e-06 -224723 2.53481e-06 -3.37171e+07)
(-1.11991e+08 -41896.6 1.0694e-05 -224359 1.18804e-06 -3.36646e+07)
(-1.11814e+08 -42338 9.67472e-06 -224015 2.2713e-06 -3.36115e+07)
(-1.11636e+08 -42666.9 4.31315e-06 -223660 -8.33647e-07 -3.35578e+07)
(-1.11456e+08 -42902.8 5.87617e-06 -223319 5.91181e-07 -3.35038e+07)
(-1.11276e+08 -43074.9 9.07794e-06 -222944 8.85336e-07 -3.34496e+07)
(-1.11094e+08 -43183.6 1.38351e-05 -222583 2.73616e-06 -3.33951e+07)
(-1.10913e+08 -43262.8 1.23599e-05 -222225 4.08531e-06 -3.33405e+07)
(-1.10731e+08 -43299.7 -3.43926e-06 -221885 -4.11289e-06 -3.32859e+07)
(-1.10549e+08 -43381.2 2.00264e-06 -221505 -1.39563e-06 -3.32312e+07)
(-1.10367e+08 -43436.3 1.10753e-05 -221203 1.7443e-06 -3.31765e+07)
(-1.10184e+08 -43734.4 3.67827e-06 -220726 -3.85535e-06 -3.31215e+07)
(-1.1e+08 -43966.1 2.47767e-05 -220467 1.13242e-06 -3.30662e+07)
(-1.09815e+08 -44594.3 1.11716e-05 -219785 8.73721e-07 -3.30105e+07)
(-1.09627e+08 -44929.5 2.87157e-05 -219508 4.89416e-06 -3.29538e+07)
(-1.09441e+08 -43374.3 9.83281e-06 -219392 3.50414e-06 -3.2898e+07)
(-1.09263e+08 -42476.6 -3.39365e-06 -218476 -4.98044e-06 -3.28443e+07)
(-1.09083e+08 -43463.4 3.25519e-05 -218468 2.31437e-06 -3.27904e+07)
(-1.08899e+08 -43846 2.07749e-05 -218143 1.44405e-06 -3.27352e+07)
(-1.08716e+08 -44033.5 3.10366e-05 -217768 4.13947e-06 -3.268e+07)
(-1.08531e+08 -44122 2.02256e-06 -217422 3.2461e-06 -3.26246e+07)
(-1.08347e+08 -44053.5 -3.36521e-06 -217027 -5.5171e-06 -3.25692e+07)
(-1.08163e+08 -44020.4 3.14825e-05 -216670 2.008e-06 -3.25139e+07)
(-1.07979e+08 -43981.8 9.16551e-06 -216250 5.7274e-07 -3.24587e+07)
(-1.07796e+08 -43959.2 3.40143e-05 -215861 4.33591e-06 -3.24035e+07)
(-1.07613e+08 -43926.8 1.62639e-05 -215507 4.42199e-06 -3.23484e+07)
(-1.07429e+08 -43913.2 -3.33671e-06 -215146 -6.04901e-06 -3.22933e+07)
(-1.07246e+08 -43908.5 3.57885e-05 -214747 4.45292e-06 -3.22383e+07)
(-1.07063e+08 -43904.3 -9.36179e-20 -214360 -1.67529e-19 -3.21832e+07)
(-1.0688e+08 -43904.7 3.56385e-05 -214003 1.98419e-06 -3.21282e+07)
(-1.06697e+08 -43914 -1.52792e-19 -213662 -2.88137e-19 -3.20732e+07)
(-1.06514e+08 -43927.9 1.57786e-05 -213304 8.47451e-07 -3.20181e+07)
(-1.06331e+08 -43948.8 1.98155e-06 -212925 4.0088e-06 -3.19631e+07)
(-1.06148e+08 -43962.9 -1.31876e-06 -212564 -2.71444e-06 -3.1908e+07)
(-1.05964e+08 -43955.7 2.63296e-06 -212215 5.51254e-06 -3.1853e+07)
(-1.05781e+08 -43948 -1.1189e-05 -211831 -5.61081e-07 -3.17979e+07)
(-1.05598e+08 -43950.8 -2.62386e-06 -211421 -5.67943e-06 -3.17428e+07)
(-1.05415e+08 -43940.4 1.28318e-05 -211044 3.44047e-06 -3.16878e+07)
(-1.05232e+08 -43924.6 9.72725e-06 -210705 -3.82613e-06 -3.16328e+07)
(-1.05049e+08 -43934.1 4.87219e-05 -210328 5.19312e-06 -3.15777e+07)
(-1.04866e+08 -43968.4 1.95425e-06 -209969 4.50861e-06 -3.15227e+07)
(-1.04682e+08 -44015.4 -2.6011e-06 -209575 -6.09413e-06 -3.14674e+07)
(-1.04499e+08 -44154.7 1.23501e-05 -209303 5.54282e-07 -3.14126e+07)
(-1.04312e+08 -44380 2.43817e-05 -208747 -4.58172e-07 -3.13563e+07)
(-1.04132e+08 -44859.8 2.16063e-05 -209126 7.16971e-06 -3.13023e+07)
(-1.03932e+08 -46162.3 -1.28433e-05 -207982 -5.51275e-07 -3.1242e+07)
(-1.03753e+08 -43541.7 1.99196e-06 -214215 -1.11085e-05 -3.11901e+07)
(-1.03537e+08 -48389.5 4.93074e-05 -216879 1.01545e-05 -3.11263e+07)
(-1.03332e+08 -23134.4 -1.33355e-05 -182765 -5.48393e-07 -3.10545e+07)
(-1.03212e+08 -40384.1 3.2463e-05 -198073 -2.00635e-06 -3.10231e+07)
(-1.03033e+08 -41991.1 1.92005e-06 -211641 5.12346e-06 -3.09734e+07)
(-1.02856e+08 -42236.9 -1.50995e-05 -205110 -4.00175e-06 -3.09182e+07)
(-1.02679e+08 -44953.1 -6.37832e-07 -206122 -1.74842e-06 -3.08656e+07)
(-1.02486e+08 -45809 1.86726e-05 -205424 -6.25929e-06 -3.08073e+07)
(-1.02299e+08 -44864.2 4.29228e-05 -204829 1.62784e-06 -3.07511e+07)
(-1.02114e+08 -44391.7 2.42405e-05 -204268 8.04844e-06 -3.06954e+07)
(-1.0193e+08 -44114.3 6.33183e-07 -203919 1.82911e-06 -3.06403e+07)
(-1.01748e+08 -43972.4 -6.32048e-07 -203506 -1.84918e-06 -3.05854e+07)
(-1.01565e+08 -44018.5 1.99023e-05 -203173 -6.66883e-06 -3.05305e+07)
(-1.01382e+08 -44096.8 4.53322e-05 -202759 1.61326e-06 -3.04756e+07)
(-1.01199e+08 -44222.8 2.54204e-05 -202406 8.44204e-06 -3.04205e+07)
(-1.01016e+08 -44257.3 1.8825e-06 -202055 5.78747e-06 -3.03653e+07)
(-1.00832e+08 -44292.9 -1.62157e-05 -201646 -2.4839e-06 -3.03101e+07)
(-1.00648e+08 -44232 1.9871e-05 -201279 -1.10128e-05 -3.02549e+07)
(-1.00465e+08 -44227.2 4.83448e-05 -200834 3.58743e-06 -3.01998e+07)
(-1.00282e+08 -44193.3 1.79341e-05 -200529 6.55758e-06 -3.01447e+07)
(-1.00099e+08 -44256 7.48986e-06 -200085 -1.76284e-06 -3.00897e+07)
(-9.99144e+07 -44588 2.45717e-05 -199643 7.94956e-07 -3.00342e+07)
(-9.97302e+07 -43969.1 2.54274e-05 -199616 2.8612e-06 -2.9979e+07)
(-9.95496e+07 -43747.6 1.66957e-05 -198751 5.28038e-07 -2.99245e+07)
(-9.93669e+07 -44334.4 2.5279e-05 -198604 7.90599e-07 -2.98697e+07)
(-9.91826e+07 -44267.2 6.16115e-07 -198235 2.12656e-06 -2.98142e+07)
(-9.89994e+07 -44214 -1.21969e-20 -197749 -3.73119e-22 -2.97591e+07)
(-9.88158e+07 -44209.6 1.67078e-05 -197430 -1.64145e-06 -2.9704e+07)
(-9.86326e+07 -44103.1 4.30806e-05 -197015 -8.77132e-07 -2.96489e+07)
(-9.84495e+07 -44085.8 2.64492e-05 -196676 7.83302e-07 -2.95939e+07)
(-9.82665e+07 -44021.6 9.50439e-06 -196266 2.4845e-06 -2.95388e+07)
(-9.80838e+07 -43980.4 6.09289e-07 -195914 2.24325e-06 -2.94839e+07)
(-9.79011e+07 -43951.4 1.62729e-05 -195546 -6.26842e-06 -2.9429e+07)
(-9.77185e+07 -43952.1 4.56293e-05 -195209 1.29581e-06 -2.93741e+07)
(-9.75357e+07 -43998.8 1.96175e-05 -194844 5.11958e-06 -2.93192e+07)
(-9.73526e+07 -44081.8 2.6025e-05 -194470 -6.18643e-06 -2.92641e+07)
(-9.71692e+07 -44118.6 2.80694e-05 -194090 7.73116e-07 -2.9209e+07)
(-9.69858e+07 -44117.5 2.64918e-05 -193745 -6.30433e-06 -2.91538e+07)
(-9.68023e+07 -44094.3 9.56962e-05 -193397 4.94509e-06 -2.90987e+07)
(-9.6619e+07 -44071.9 2.21725e-05 -193003 1.24967e-05 -2.90436e+07)
(-9.64359e+07 -44044.7 2.89857e-05 -192623 7.67281e-07 -2.89886e+07)
(-9.62529e+07 -44009.1 1.94758e-05 -192276 5.10549e-07 -2.89336e+07)
(-9.607e+07 -43989.2 2.70542e-05 -191933 -9.05097e-06 -2.88786e+07)
(-9.58871e+07 -43985 6.11238e-05 -191561 8.94412e-06 -2.88236e+07)
(-9.57042e+07 -43984.9 2.23081e-05 -191183 1.04743e-05 -2.87686e+07)
(-9.55213e+07 -43982.1 -1.18674e-06 -190823 -5.02102e-06 -2.87136e+07)
(-9.53384e+07 -43982.1 2.02315e-05 -190478 5.05698e-07 -2.86587e+07)
(-9.51554e+07 -43990.5 1.1822e-06 -190118 5.09623e-06 -2.86037e+07)
(-9.49723e+07 -44004.2 -4.22754e-20 -189735 -1.82395e-19 -2.85486e+07)
(-9.47891e+07 -44006.4 1.95038e-05 -189364 -4.66836e-06 -2.84935e+07)
(-9.46058e+07 -43994.5 -1.76305e-06 -189011 -7.81275e-06 -2.84385e+07)
(-9.44226e+07 -43983.1 3.08834e-05 -188638 -1.87163e-06 -2.83834e+07)
(-9.42393e+07 -43972.6 3.46202e-05 -188241 1.39573e-05 -2.83283e+07)
(-9.40561e+07 -43950.9 -1.16854e-06 -187865 -5.32011e-06 -2.82732e+07)
(-9.38729e+07 -43926.1 7.38231e-05 -187516 -3.61443e-06 -2.82181e+07)
(-9.36896e+07 -43915.5 2.33195e-05 -187156 8.5882e-06 -2.8163e+07)
(-9.35064e+07 -43912 1.16171e-06 -186785 5.43108e-06 -2.81079e+07)
(-9.3323e+07 -43901.4 -1.73915e-06 -186422 -8.20188e-06 -2.80528e+07)
(-9.31397e+07 -43881.7 5.38819e-05 -186070 -4.2696e-06 -2.79977e+07)
(-9.29563e+07 -43858 2.33173e-05 -185709 6.03446e-06 -2.79426e+07)
(-9.2773e+07 -43835.8 -1.00019e-05 -185331 5.33197e-06 -2.78875e+07)
(-9.25897e+07 -43812.8 -2.188e-05 -184961 2.31617e-06 -2.78324e+07)
(-9.24064e+07 -43790.3 -4.59218e-06 -184609 -2.26042e-05 -2.77773e+07)
(-9.22232e+07 -43775.6 0.000113161 -184260 -3.97854e-07 -2.77222e+07)
(-9.20399e+07 -43773.5 3.71968e-05 -183902 1.50418e-05 -2.76671e+07)
(-9.18566e+07 -43777.4 3.51263e-05 -183550 3.61088e-06 -2.76121e+07)
(-9.16733e+07 -43778.3 2.37514e-05 -183216 3.38439e-06 -2.75569e+07)
(-9.14898e+07 -43781.1 2.33264e-05 -182870 4.85284e-07 -2.75018e+07)
(-9.13064e+07 -43787.6 4.69412e-05 -182498 9.68622e-07 -2.74467e+07)
(-9.11229e+07 -43788.2 2.30484e-05 -182136 -2.46886e-06 -2.73915e+07)
(-9.09396e+07 -43771.5 1.01843e-05 -181808 -8.66927e-06 -2.73364e+07)
(-9.07561e+07 -43754.5 8.36549e-05 -181460 1.68487e-06 -2.72813e+07)
(-9.05731e+07 -43689 6.12364e-05 -181123 7.21294e-06 -2.72263e+07)
(-9.039e+07 -43629.1 3.68423e-05 -180753 3.74296e-06 -2.71712e+07)
(-9.02079e+07 -43345.4 2.489e-05 -180523 3.52007e-06 -2.71165e+07)
(-9.00264e+07 -43300.6 -1.89864e-18 -180217 -1.04341e-17 -2.7062e+07)
(-8.98454e+07 -42667.1 -1.67433e-06 -179965 -9.23133e-06 -2.70076e+07)
(-8.96689e+07 -43440.8 8.77585e-05 -179797 7.85433e-06 -2.69546e+07)
(-8.94811e+07 -45823.5 3.73459e-05 -177091 7.11975e-07 -2.68975e+07)
(-8.92945e+07 -43150.3 3.64476e-05 -177299 -5.54979e-06 -2.68415e+07)
(-8.91192e+07 -41311.4 2.68388e-05 -178635 9.91556e-06 -2.67893e+07)
(-8.89451e+07 -42516.9 1.39045e-19 -178134 8.99273e-19 -2.6737e+07)
(-8.87613e+07 -45858.7 -3.30827e-06 -177550 -1.90968e-05 -2.66816e+07)
(-8.85665e+07 -46060.6 0.000127996 -176741 2.3489e-06 -2.6623e+07)
(-8.83774e+07 -44161.1 2.74494e-06 -178874 1.60884e-05 -2.65669e+07)
(-8.81983e+07 -42555.1 -1.51301e-05 -176544 -1.31741e-05 -2.65125e+07)
(-8.8019e+07 -44365.6 7.6956e-05 -176136 -5.10431e-06 -2.64586e+07)
(-8.7831e+07 -44760.5 6.42972e-05 -176144 -5.37497e-06 -2.64021e+07)
(-8.76461e+07 -44497.9 0.000131469 -175522 2.32445e-06 -2.63465e+07)
(-8.7461e+07 -44448.5 9.41419e-05 -175245 1.15369e-05 -2.62909e+07)
(-8.72767e+07 -44246.2 9.24523e-05 -174752 -1.70137e-06 -2.62354e+07)
(-8.70931e+07 -44175.4 0.00010683 -174432 1.84783e-06 -2.61803e+07)
(-8.69096e+07 -44108.1 6.71117e-05 -174076 1.15246e-06 -2.61251e+07)
(-8.67264e+07 -44107.7 0.000107927 -173703 1.84005e-06 -2.607e+07)
(-8.65432e+07 -44115.8 9.65269e-05 -173305 1.17772e-05 -2.60149e+07)
(-8.636e+07 -44117.9 6.92097e-05 -172961 7.95964e-06 -2.59599e+07)
(-8.61768e+07 -44124.2 6.74063e-05 -172614 -5.70575e-06 -2.59048e+07)
(-8.59935e+07 -44147.2 6.61456e-05 -172227 -1.60658e-05 -2.58497e+07)
(-8.58103e+07 -44176.1 0.000138311 -171826 2.27577e-06 -2.57946e+07)
(-8.56269e+07 -44198.5 9.99502e-05 -171467 1.89649e-05 -2.57395e+07)
(-8.54435e+07 -44237.5 7.08922e-05 -171117 8.11688e-06 -2.56844e+07)
(-8.52599e+07 -44272.1 6.9108e-05 -170766 -5.88694e-06 -2.56292e+07)
(-8.50763e+07 -44321.3 6.78606e-05 -170357 -1.64996e-05 -2.5574e+07)
(-8.48924e+07 -44279.1 0.000155844 -170016 2.47656e-06 -2.55187e+07)
(-8.47093e+07 -44135.8 0.000114928 -169682 8.9153e-06 -2.54637e+07)
(-8.45263e+07 -43920.9 8.52823e-05 -169378 -2.23068e-06 -2.54087e+07)
(-8.43454e+07 -43429.8 0.000114943 -169150 1.78952e-06 -2.53544e+07)
(-8.41655e+07 -43887.6 0.000115475 -168448 1.78572e-06 -2.53002e+07)
(-8.39814e+07 -44716.9 0.000116527 -168374 5.40738e-06 -2.52449e+07)
(-8.37958e+07 -44573.1 0.000116535 -168047 1.77785e-06 -2.51892e+07)
(-8.36124e+07 -44264.2 8.72783e-05 -167580 -2.32816e-06 -2.5134e+07)
(-8.34294e+07 -44276.3 8.87113e-05 -167209 5.00267e-06 -2.5079e+07)
(-8.32461e+07 -44332.6 7.27887e-05 -166796 -6.27922e-06 -2.50239e+07)
(-8.30628e+07 -44370.3 0.000163132 -166480 2.42317e-06 -2.49688e+07)
(-8.28794e+07 -44358.7 0.000106844 -166079 2.01602e-05 -2.49136e+07)
(-8.26962e+07 -44360 4.43691e-05 -165710 -3.08269e-06 -2.48586e+07)
(-8.25132e+07 -44334.9 0.00013421 -165326 -5.54437e-06 -2.48035e+07)
(-8.23303e+07 -44336.6 7.69898e-05 -164992 1.24113e-05 -2.47486e+07)
(-8.21474e+07 -44350.4 7.57798e-05 -164620 1.0893e-06 -2.46936e+07)
(-8.19646e+07 -44384.8 0.000106545 -164235 1.52163e-06 -2.46386e+07)
(-8.17817e+07 -44409.6 7.74424e-05 -163849 8.72789e-06 -2.45837e+07)
(-8.15988e+07 -44426.3 7.57347e-05 -163482 -6.59363e-06 -2.45287e+07)
(-8.1416e+07 -44436.3 7.45412e-05 -163107 -1.81899e-05 -2.44737e+07)
(-8.12332e+07 -44448.1 0.000154781 -162718 2.15436e-06 -2.44188e+07)
(-8.10504e+07 -44457.7 0.000111312 -162331 2.09344e-05 -2.43638e+07)
(-8.08676e+07 -44462.6 7.90347e-05 -161965 8.87615e-06 -2.43089e+07)
(-8.06848e+07 -44461.3 7.73462e-05 -161627 -6.76576e-06 -2.42539e+07)
(-8.05019e+07 -44464.1 7.61662e-05 -161271 -1.86012e-05 -2.4199e+07)
(-8.0319e+07 -44466.8 0.000173764 -160892 2.34313e-06 -2.4144e+07)
(-8.01361e+07 -44460 0.000127876 -160518 9.63104e-06 -2.4089e+07)
(-7.99532e+07 -44454.6 0.000142812 -160148 -2.07282e-06 -2.4034e+07)
(-7.97702e+07 -44469.9 9.64125e-05 -159759 5.26629e-06 -2.3979e+07)
(-7.95871e+07 -44492.3 0.000112343 -159381 1.4775e-06 -2.39239e+07)
(-7.94039e+07 -44514.3 0.000128894 -159019 1.68468e-06 -2.38689e+07)
(-7.92205e+07 -44518.3 0.00011322 -158671 1.47069e-06 -2.38138e+07)
(-7.90372e+07 -44485.7 9.69293e-05 -158293 -2.8019e-06 -2.37586e+07)
(-7.88539e+07 -44427.8 9.82837e-05 -157892 5.32991e-06 -2.37035e+07)
(-7.86711e+07 -44286.2 8.08281e-05 -157547 -7.13814e-06 -2.36486e+07)
(-7.84887e+07 -44220 0.000180654 -157169 2.28974e-06 -2.35937e+07)
(-7.83063e+07 -44240.4 0.000116854 -156857 1.38186e-05 -2.35389e+07)
(-7.81234e+07 -44429.4 0.000132373 -156383 1.65752e-06 -2.34839e+07)
(-7.79397e+07 -44599.5 0.000116257 -156039 1.44692e-06 -2.34287e+07)
(-7.77553e+07 -44877.8 5.09749e-05 -155553 8.95427e-06 -2.33732e+07)
(-7.7569e+07 -44978.7 8.31725e-05 -155205 -3.15452e-06 -2.33173e+07)
(-7.73843e+07 -44145.3 0.000148724 -155062 -1.91448e-05 -2.32618e+07)
(-7.72037e+07 -43686.5 0.000218128 -154376 -5.76543e-06 -2.32074e+07)
(-7.70224e+07 -44135.3 0.000137702 -154169 2.27783e-05 -2.3153e+07)
(-7.6839e+07 -44340.9 5.18778e-05 -153840 9.09935e-06 -2.30979e+07)
(-7.66555e+07 -44497 0.000135327 -153441 -6.8919e-06 -2.30427e+07)
(-7.64713e+07 -44562.3 0.000121093 -153067 1.42424e-05 -2.29873e+07)
(-7.62872e+07 -44532.2 8.57781e-05 -152684 1.0116e-06 -2.2932e+07)
(-7.61034e+07 -44505.5 0.00012051 -152335 1.41283e-06 -2.28767e+07)
(-7.59196e+07 -44482.4 5.13554e-05 -151932 -3.71528e-06 -2.28215e+07)
(-7.57361e+07 -44480.9 0.000154608 -151530 -1.11951e-05 -2.27663e+07)
(-7.55527e+07 -44473.6 0.000155618 -151168 -6.89503e-06 -2.27111e+07)
(-7.53693e+07 -44471 0.000226911 -150843 2.59852e-06 -2.2656e+07)
(-7.51859e+07 -44484 0.000158561 -150480 1.05524e-05 -2.26009e+07)
(-7.50026e+07 -44502.7 0.000140586 -150084 1.59131e-06 -2.25458e+07)
(-7.48192e+07 -44507.9 0.000141524 -149699 5.99592e-06 -2.24907e+07)
(-7.46359e+07 -44504 0.000123839 -149341 1.38559e-06 -2.24356e+07)
(-7.44527e+07 -44500.2 0.000106038 -148989 -3.25321e-06 -2.23805e+07)
(-7.42694e+07 -44502.7 0.000142932 -148609 6.02836e-06 -2.23254e+07)
(-7.40861e+07 -44503.3 8.84161e-05 -148216 -7.95204e-06 -2.22703e+07)
(-7.39029e+07 -44493.1 0.000233034 -147847 2.54797e-06 -2.22152e+07)
(-7.37196e+07 -44479 0.000126803 -147495 1.03613e-05 -2.21601e+07)
(-7.35364e+07 -44472.6 0.000163291 -147123 1.0777e-05 -2.21051e+07)
(-7.33532e+07 -44470.4 9.09552e-05 -146726 5.49808e-06 -2.205e+07)
(-7.317e+07 -44459.3 5.44731e-05 -146344 5.82164e-07 -2.19949e+07)
(-7.29868e+07 -44435.2 9.10767e-05 -146003 9.67844e-07 -2.19398e+07)
(-7.28037e+07 -44421.1 0.000143922 -145643 -2.12984e-05 -2.18848e+07)
(-7.26205e+07 -44427.5 0.000236939 -145243 -1.12451e-05 -2.18297e+07)
(-7.24373e+07 -44436.2 0.000186124 -144860 2.49074e-05 -2.17746e+07)
(-7.2254e+07 -44440.6 5.62311e-05 -144530 9.79793e-06 -2.17196e+07)
(-7.20706e+07 -44452.2 0.000147116 -144206 -7.72241e-06 -2.16644e+07)
(-7.1887e+07 -44477.3 0.000131247 -143817 1.52544e-05 -2.16093e+07)
(-7.17034e+07 -44487.2 9.30742e-05 -143401 9.50827e-07 -2.1554e+07)
(-7.15198e+07 -44455.1 0.000130699 -143035 1.32775e-06 -2.14989e+07)
(-7.13364e+07 -44410.6 5.57398e-05 -142681 -4.11474e-06 -2.14437e+07)
(-7.11531e+07 -44370.2 0.000167729 -142296 -1.23907e-05 -2.13886e+07)
(-7.097e+07 -44333.3 0.000168677 -141881 -7.72677e-06 -2.13336e+07)
(-7.07872e+07 -44267.8 0.000209173 -141521 1.62381e-05 -2.12786e+07)
(-7.06047e+07 -44217.5 0.000115025 -141172 1.53384e-05 -2.12237e+07)
(-7.04222e+07 -44218.2 0.000132175 -140817 -8.19703e-06 -2.11689e+07)
(-7.02399e+07 -44273.3 0.000133439 -140427 1.30399e-06 -2.11141e+07)
(-7.0057e+07 -44456.6 0.000133391 -140043 -3.47932e-06 -2.10591e+07)
(-6.98734e+07 -44571 0.000114605 -139738 -3.68184e-06 -2.1004e+07)
(-6.96898e+07 -44556.7 0.000155125 -139351 1.5901e-05 -2.09487e+07)
(-6.95063e+07 -44540 5.6986e-05 -138973 -9.08939e-06 -2.08936e+07)
(-6.93229e+07 -44494.7 0.000211856 -138606 -7.64741e-06 -2.08385e+07)
(-6.91398e+07 -44465.1 0.000137036 -138267 1.58292e-05 -2.07834e+07)
(-6.89567e+07 -44455 0.000195327 -137912 1.15531e-05 -2.07284e+07)
(-6.87738e+07 -44454.6 9.83611e-05 -137527 1.06635e-05 -2.06734e+07)
(-6.85909e+07 -44454.5 1.87033e-05 -137134 -9.59665e-06 -2.06184e+07)
(-6.84081e+07 -44448.7 0.000135992 -136764 -1.34384e-05 -2.05635e+07)
(-6.82253e+07 -44453.3 0.000156036 -136419 -1.33013e-05 -2.05085e+07)
(-6.80426e+07 -44484.4 0.000216889 -136062 1.98502e-06 -2.04536e+07)
(-6.78597e+07 -44528.4 0.000159431 -135713 1.62691e-05 -2.03986e+07)
(-6.76767e+07 -44562.9 0.00013919 -135377 6.21286e-06 -2.03436e+07)
(-6.74935e+07 -44589 0.00015902 -135018 1.432e-06 -2.02886e+07)
(-6.73103e+07 -44607.4 0.000140351 -134626 1.12158e-05 -2.02335e+07)
(-6.7127e+07 -44613.8 9.99187e-05 -134230 8.90141e-07 -2.01784e+07)
(-6.69438e+07 -44611.2 0.000140256 -133859 1.2428e-06 -2.01233e+07)
(-6.67605e+07 -44612.7 2.00894e-05 -133491 1.77056e-07 -2.00682e+07)
(-6.65773e+07 -44623.3 0.000139753 -133088 -1.38717e-05 -2.00131e+07)
(-6.63939e+07 -44624.2 0.000180512 -132695 -1.35623e-05 -1.9958e+07)
(-6.62106e+07 -44601.1 0.000223125 -132344 6.99366e-06 -1.99029e+07)
(-6.60272e+07 -44568.3 0.000163211 -131984 1.15511e-05 -1.98478e+07)
(-6.5844e+07 -44533.3 0.000162398 -131602 -3.69111e-06 -1.97927e+07)
(-6.56608e+07 -44476.1 0.00016363 -131229 6.49421e-06 -1.97376e+07)
(-6.54778e+07 -44431.3 0.000103492 -130881 1.62103e-05 -1.96826e+07)
(-6.52948e+07 -44422.9 0.000102125 -130544 -4.26106e-06 -1.96276e+07)
(-6.51117e+07 -44436.5 0.00016446 -130165 1.38147e-06 -1.95726e+07)
(-6.49285e+07 -44463.8 6.10196e-05 -129790 -9.78859e-06 -1.95175e+07)
(-6.47452e+07 -44489.4 0.000226454 -129432 -8.44192e-06 -1.94624e+07)
(-6.45618e+07 -44524.8 0.000146982 -129069 2.70892e-05 -1.94073e+07)
(-6.43784e+07 -44561.3 0.000166094 -128703 1.36591e-06 -1.93521e+07)
(-6.41948e+07 -44597.4 0.000165702 -128338 -9.04503e-06 -1.92969e+07)
(-6.40112e+07 -44608.6 0.000104315 -127999 8.48825e-07 -1.92418e+07)
(-6.38276e+07 -44610.8 0.000145998 -127629 -4.04382e-06 -1.91866e+07)
(-6.36442e+07 -44546.8 0.000166524 -127287 -1.43737e-05 -1.91315e+07)
(-6.34612e+07 -44495.5 0.000231152 -126885 1.85137e-06 -1.90764e+07)
(-6.32783e+07 -44433.3 0.00016969 -126537 1.71417e-05 -1.90215e+07)
(-6.3096e+07 -44440.3 0.000148188 -126153 6.45019e-06 -1.89666e+07)
(-6.29129e+07 -44789.6 0.000169307 -125723 1.33482e-06 -1.89116e+07)
(-6.27282e+07 -44951.7 0.00014927 -125461 1.17718e-05 -1.88561e+07)
(-6.25439e+07 -44765 0.000106312 -125004 8.2937e-07 -1.88007e+07)
(-6.23605e+07 -44640.3 0.000149181 -124612 1.15772e-06 -1.87455e+07)
(-6.21774e+07 -44525.9 6.40822e-05 -124247 4.94707e-07 -1.86905e+07)
(-6.19946e+07 -44484.3 0.000148713 -123909 -1.49076e-05 -1.86356e+07)
(-6.18118e+07 -44502.8 0.000191975 -123551 -1.46197e-05 -1.85806e+07)
(-6.1629e+07 -44503.2 0.000236962 -123174 7.17513e-06 -1.85257e+07)
(-6.14464e+07 -44455 0.000173209 -122809 1.20824e-05 -1.84708e+07)
(-6.12639e+07 -44384.8 0.000172452 -122454 -4.1016e-06 -1.84159e+07)
(-6.10821e+07 -44300.7 0.000173598 -122138 6.70947e-06 -1.83613e+07)
(-6.09001e+07 -44576.3 0.000109637 -121670 1.70842e-05 -1.83065e+07)
(-6.07164e+07 -45051.3 0.000130114 -121378 -4.47137e-06 -1.82513e+07)
(-6.05308e+07 -45320.2 0.000174371 -120954 1.28429e-06 -1.81955e+07)
(-6.03453e+07 -45002.8 6.47823e-05 -120677 -1.04427e-05 -1.81398e+07)
(-6.01622e+07 -44477.9 0.000240059 -120226 -9.19142e-06 -1.80847e+07)
(-5.99803e+07 -44438 0.000155435 -119784 2.85391e-05 -1.803e+07)
(-5.97979e+07 -44535.8 0.000175889 -119496 1.26873e-06 -1.79752e+07)
(-5.96152e+07 -44595.9 0.000175525 -119118 -9.75256e-06 -1.79203e+07)
(-5.94321e+07 -44709 0.000110401 -118788 7.88107e-07 -1.78653e+07)
(-5.92485e+07 -44739.8 0.000154521 -118383 -4.43221e-06 -1.78101e+07)
(-5.90649e+07 -44754.1 0.000176288 -118031 -1.53783e-05 -1.77549e+07)
(-5.88812e+07 -44728.7 0.000244788 -117671 7.27321e-06 -1.76997e+07)
(-5.86976e+07 -44698.3 0.000223759 -117303 1.82579e-05 -1.76445e+07)
(-5.8514e+07 -44650.8 0.000222764 -116906 -4.02673e-06 -1.75893e+07)
(-5.83306e+07 -44593.2 0.000268306 -116510 1.85641e-06 -1.75341e+07)
(-5.81474e+07 -44526.7 0.000224409 -116147 7.14375e-06 -1.74791e+07)
(-5.79645e+07 -44473.7 0.000179605 -115812 1.22983e-06 -1.74241e+07)
(-5.77816e+07 -44443.1 0.00017997 -115486 1.22595e-06 -1.73691e+07)
(-5.75987e+07 -44456.1 0.000180334 -115121 1.22207e-06 -1.73141e+07)
(-5.74158e+07 -44466.7 0.000248458 -114786 1.67501e-06 -1.72592e+07)
(-5.72324e+07 -44621.4 0.000226323 -114396 1.51787e-06 -1.7204e+07)
(-5.70487e+07 -44658.6 0.000227837 -114031 1.85223e-05 -1.71488e+07)
(-5.68645e+07 -45105.5 4.54446e-05 -113614 3.01622e-07 -1.70934e+07)
(-5.66774e+07 -44672.5 0.000226615 -113163 -1.55734e-05 -1.70372e+07)
(-5.64969e+07 -43216.7 0.000250928 -114259 1.6481e-06 -1.69833e+07)
(-5.63163e+07 -44825.6 0.00018285 -113626 1.1948e-06 -1.6929e+07)
(-5.6128e+07 -46099 0.000229705 -112035 1.29398e-05 -1.6872e+07)
(-5.59398e+07 -45244.8 0.00018356 -111858 1.18687e-06 -1.68155e+07)
(-5.57568e+07 -44028.2 0.00016023 -111095 -1.04601e-05 -1.67604e+07)
(-5.55761e+07 -44234.4 0.000253361 -110996 1.62134e-06 -1.67061e+07)
(-5.53939e+07 -44146.4 0.000230766 -110602 1.46911e-06 -1.66513e+07)
(-5.52125e+07 -44310.3 0.000231202 -110353 1.4643e-06 -1.65969e+07)
(-5.503e+07 -44380.8 0.000231636 -109970 1.45946e-06 -1.6542e+07)
(-5.48476e+07 -44444 0.000232751 -109649 1.30589e-05 -1.64872e+07)
(-5.46649e+07 -44471.8 0.000186001 -109317 1.15982e-06 -1.64323e+07)
(-5.44821e+07 -44504.8 0.000185669 -108972 -1.04915e-05 -1.63773e+07)
(-5.4299e+07 -44534.1 0.000233361 -108588 1.44007e-06 -1.63223e+07)
(-5.41159e+07 -44548 0.000187031 -108208 1.14817e-06 -1.62672e+07)
(-5.39328e+07 -44529.4 0.00023388 -107871 -4.42543e-06 -1.62122e+07)
(-5.37497e+07 -44501.7 0.000281568 -107530 1.71059e-06 -1.61572e+07)
(-5.35667e+07 -44487 0.000235396 -107138 7.29762e-06 -1.61022e+07)
(-5.33837e+07 -44481.3 0.000235485 -106739 1.41579e-06 -1.60471e+07)
(-5.32008e+07 -44480.2 0.000235905 -106407 1.41094e-06 -1.59922e+07)
(-5.30177e+07 -44498.4 0.000236983 -106109 1.32231e-05 -1.59371e+07)
(-5.28344e+07 -44534.8 0.00019005 -105780 1.29589e-05 -1.58821e+07)
(-5.2651e+07 -44556.9 0.000189072 -105426 -1.07416e-05 -1.58269e+07)
(-5.24675e+07 -44554 0.000190384 -105058 7.0529e-06 -1.57718e+07)
(-5.2284e+07 -44536.1 9.51943e-05 -104668 5.54647e-07 -1.57166e+07)
(-5.21006e+07 -44513.3 0.000237427 -104301 -1.64993e-05 -1.56615e+07)
(-5.19172e+07 -44501.5 0.000238808 -103945 1.37689e-06 -1.56064e+07)
(-5.17338e+07 -44518.2 0.000191373 -103564 1.09762e-06 -1.55512e+07)
(-5.15503e+07 -44531.9 0.000240264 -103234 1.33492e-05 -1.54961e+07)
(-5.13667e+07 -44546.2 0.000192024 -102891 1.08983e-06 -1.54409e+07)
(-5.1183e+07 -44576.4 0.000167668 -102491 -1.10723e-05 -1.53856e+07)
(-5.09991e+07 -44575.3 0.000264921 -102105 1.48779e-06 -1.53303e+07)
(-5.08151e+07 -44572 0.000241239 -101730 1.34765e-06 -1.5275e+07)
(-5.06311e+07 -44476.7 0.000241639 -101425 1.34277e-06 -1.52198e+07)
(-5.04477e+07 -44335.2 0.000242038 -101073 1.33791e-06 -1.51646e+07)
(-5.02647e+07 -44301.6 0.000243059 -100710 1.34556e-05 -1.51096e+07)
(-5.00815e+07 -44313.6 0.000194264 -100314 1.06256e-06 -1.50546e+07)
(-4.98984e+07 -44338.7 0.00019396 -99940 -1.11034e-05 -1.49995e+07)
(-4.97153e+07 -44364.5 0.000243618 -99646.6 1.31848e-06 -1.49445e+07)
(-4.9532e+07 -44410.8 0.000195207 -99301.7 1.05089e-06 -1.48894e+07)
(-4.93485e+07 -44482.3 0.000244092 -98907.2 -4.80162e-06 -1.48342e+07)
(-4.9165e+07 -44530.1 0.000293745 -98550 1.56467e-06 -1.47791e+07)
(-4.89815e+07 -44561.8 0.000245479 -98219.9 7.42879e-06 -1.47239e+07)
(-4.8798e+07 -44592.1 0.00024556 -97873.7 1.29415e-06 -1.46688e+07)
(-4.86145e+07 -44612.3 0.000245944 -97523.8 1.28928e-06 -1.46136e+07)
(-4.84311e+07 -44640.8 0.000246327 -97105.7 1.28442e-06 -1.45585e+07)
(-4.82478e+07 -44668.4 0.000247308 -96709.9 1.36158e-05 -1.45034e+07)
(-4.80646e+07 -44685.5 0.000197671 -96376.4 1.01976e-06 -1.44483e+07)
(-4.78813e+07 -44753.9 0.000198271 -96015.8 7.20295e-06 -1.43932e+07)
(-4.76978e+07 -44824.7 9.91376e-05 -95645.5 5.05989e-07 -1.4338e+07)
(-4.75142e+07 -44861 0.000247334 -95282.4 -1.73576e-05 -1.42828e+07)
(-4.73304e+07 -44879.2 0.000248594 -94954.5 1.25522e-06 -1.42276e+07)
(-4.71466e+07 -44872.1 0.000199173 -94573.9 1.00028e-06 -1.41724e+07)
(-4.6963e+07 -44857.3 0.000249921 -94142.2 1.37132e-05 -1.41171e+07)
(-4.67794e+07 -44838.6 0.000199766 -93725.1 9.925e-07 -1.40619e+07)
(-4.6596e+07 -44825.3 0.000174474 -93368.7 -1.16396e-05 -1.40068e+07)
(-4.64127e+07 -44826.4 0.000275486 -93058.9 1.35398e-06 -1.39517e+07)
(-4.62292e+07 -44847.2 0.000175565 -92719.2 8.58217e-07 -1.38966e+07)
(-4.60456e+07 -44872 0.000200937 -92293.2 9.76932e-07 -1.38414e+07)
(-4.5862e+07 -44859.8 0.000251534 -91885.4 1.2163e-06 -1.37862e+07)
(-4.56787e+07 -44792.4 0.000252462 -91559.3 1.3807e-05 -1.37311e+07)
(-4.54955e+07 -44762.2 0.000201804 -91183.1 9.65259e-07 -1.3676e+07)
(-4.53127e+07 -44646.5 0.000201527 -90844 -1.16701e-05 -1.3621e+07)
(-4.51301e+07 -44650.4 0.00025297 -90469.1 1.19688e-06 -1.35662e+07)
(-4.49475e+07 -44358.7 0.00020266 -90168.6 9.53631e-07 -1.35113e+07)
(-4.4767e+07 -44770.2 0.000253401 -89895.6 -5.15514e-06 -1.34571e+07)
(-4.45809e+07 -45960 0.000304839 -88389.5 1.41886e-06 -1.34008e+07)
(-4.43948e+07 -44727 0.000254658 -88203.7 7.53741e-06 -1.33449e+07)
(-4.42147e+07 -43741.1 0.00025473 -88741.9 1.1726e-06 -1.3291e+07)
(-4.40346e+07 -44383.9 0.000204884 -88248.6 2.00664e-05 -1.32369e+07)
(-4.38505e+07 -45306.2 0.000178526 -88177.7 -5.572e-06 -1.31816e+07)
(-4.3665e+07 -45111.1 0.000306654 -87549.6 -5.00506e-06 -1.31258e+07)
(-4.34809e+07 -45132.8 0.000153939 -87203.7 7.09516e-06 -1.30704e+07)
(-4.32964e+07 -44966.1 0.000205435 -86744.2 7.33044e-06 -1.3015e+07)
(-4.31131e+07 -44895.6 0.000128399 -86357.5 5.71693e-07 -1.29598e+07)
(-4.29296e+07 -44830.9 0.000256337 -85992.3 -1.8148e-05 -1.29047e+07)
(-4.27466e+07 -44818.5 0.000257475 -85644.5 1.13366e-06 -1.28497e+07)
(-4.25635e+07 -44816.9 0.000257812 -85317.6 1.12881e-06 -1.27946e+07)
(-4.23805e+07 -44799.9 0.000258673 -85011 1.40321e-05 -1.27396e+07)
(-4.21974e+07 -44811 0.000155088 -84644.2 6.71455e-07 -1.26846e+07)
(-4.20142e+07 -44854.1 0.000180647 -84251.2 -1.21615e-05 -1.26295e+07)
(-4.18308e+07 -44918.7 0.000285058 -83840.8 1.22031e-06 -1.25744e+07)
(-4.16471e+07 -44991.4 0.000181631 -83483.1 7.73153e-07 -1.25192e+07)
(-4.1463e+07 -45067.9 0.00020784 -83150.1 8.79698e-07 -1.24639e+07)
(-4.12787e+07 -45113.3 0.000260127 -82795.9 1.09473e-06 -1.24085e+07)
(-4.10944e+07 -45096.1 0.000260452 -82386 1.08985e-06 -1.2353e+07)
(-4.09103e+07 -45037 0.000286853 -81918.6 1.19347e-06 -1.22977e+07)
(-4.07267e+07 -44928.4 0.000182768 -81473.3 7.5608e-07 -1.22425e+07)
(-4.05437e+07 -44850.1 0.000261417 -81132.1 1.07526e-06 -1.21875e+07)
(-4.03608e+07 -44868.3 0.000209389 -80835.2 8.56321e-07 -1.21325e+07)
(-4.01777e+07 -44954.7 0.000262054 -80450.6 1.06555e-06 -1.20774e+07)