/*--------------------------------*- C++ -*----------------------------------*\
| =========                 |                                                 |
| \\      /  F ield         | foam-extend: Open Source CFD                    |
|  \\    /   O peration     | Version:     4.0                                |
|   \\  /    A nd           | Web:         http://www.foam-extend.org         |
|    \\/     M anipulation  |                                                 |
\*---------------------------------------------------------------------------*/
FoamFile
{
    version     2.0;
    format      ascii;
    class       volVectorField;
    location    "1";
    object      D;
}
// * * * * * * * * * * * * * * * * * * * * * * * * * * * * * * * * * * * * * //

dimensions      [0 1 0 0 0 0 0];

internalField   nonuniform List<vector> 
40960
(
(-1.07617e-06 -1.05074e-06 0)
(-2.86286e-06 -2.24612e-06 0)
(-4.49324e-06 -3.10981e-06 0)
(-6.07299e-06 -3.86022e-06 0)
(-7.6392e-06 -4.58353e-06 0)
(-9.20645e-06 -5.32491e-06 0)
(-1.07804e-05 -6.11151e-06 0)
(-1.23629e-05 -6.96095e-06 0)
(-1.39538e-05 -7.88518e-06 0)
(-1.55526e-05 -8.89257e-06 0)
(-1.7158e-05 -9.98904e-06 0)
(-1.8769e-05 -1.11788e-05 0)
(-2.03842e-05 -1.2465e-05 0)
(-2.20028e-05 -1.38498e-05 0)
(-2.36236e-05 -1.53348e-05 0)
(-2.52459e-05 -1.69209e-05 0)
(-2.6869e-05 -1.86091e-05 0)
(-2.84921e-05 -2.03998e-05 0)
(-3.01149e-05 -2.22933e-05 0)
(-3.17368e-05 -2.42898e-05 0)
(-3.33575e-05 -2.63893e-05 0)
(-3.49768e-05 -2.85919e-05 0)
(-3.65943e-05 -3.08974e-05 0)
(-3.82099e-05 -3.33058e-05 0)
(-3.98235e-05 -3.5817e-05 0)
(-4.14348e-05 -3.84307e-05 0)
(-4.30439e-05 -4.11469e-05 0)
(-4.46506e-05 -4.39653e-05 0)
(-4.62548e-05 -4.68858e-05 0)
(-4.78565e-05 -4.99083e-05 0)
(-4.94558e-05 -5.30324e-05 0)
(-5.10525e-05 -5.62582e-05 0)
(-5.26466e-05 -5.95852e-05 0)
(-5.42381e-05 -6.30135e-05 0)
(-5.58271e-05 -6.65428e-05 0)
(-5.74134e-05 -7.0173e-05 0)
(-5.89971e-05 -7.39038e-05 0)
(-6.05782e-05 -7.77351e-05 0)
(-6.21567e-05 -8.16668e-05 0)
(-6.37326e-05 -8.56986e-05 0)
(-6.53058e-05 -8.98303e-05 0)
(-6.68764e-05 -9.40619e-05 0)
(-6.84444e-05 -9.83932e-05 0)
(-7.00098e-05 -0.000102824 0)
(-7.15726e-05 -0.000107354 0)
(-7.31327e-05 -0.000111983 0)
(-7.46902e-05 -0.000116711 0)
(-7.62451e-05 -0.000121538 0)
(-7.77973e-05 -0.000126464 0)
(-7.9347e-05 -0.000131488 0)
(-8.0894e-05 -0.00013661 0)
(-8.24384e-05 -0.000141831 0)
(-8.39801e-05 -0.000147149 0)
(-8.55193e-05 -0.000152566 0)
(-8.70558e-05 -0.00015808 0)
(-8.85897e-05 -0.000163691 0)
(-9.01209e-05 -0.0001694 0)
(-9.16496e-05 -0.000175206 0)
(-9.31756e-05 -0.000181108 0)
(-9.4699e-05 -0.000187108 0)
(-9.62198e-05 -0.000193204 0)
(-9.7738e-05 -0.000199397 0)
(-9.92535e-05 -0.000205686 0)
(-0.000100766 -0.000212071 0)
(-0.000102277 -0.000218552 0)
(-0.000103784 -0.000225129 0)
(-0.000105289 -0.000231802 0)
(-0.000106792 -0.00023857 0)
(-0.000108292 -0.000245434 0)
(-0.000109789 -0.000252392 0)
(-0.000111283 -0.000259446 0)
(-0.000112775 -0.000266594 0)
(-0.000114265 -0.000273837 0)
(-0.000115751 -0.000281175 0)
(-0.000117235 -0.000288606 0)
(-0.000118717 -0.000296132 0)
(-0.000120196 -0.000303752 0)
(-0.000121672 -0.000311466 0)
(-0.000123146 -0.000319273 0)
(-0.000124617 -0.000327174 0)
(-0.000126085 -0.000335168 0)
(-0.000127551 -0.000343255 0)
(-0.000129014 -0.000351436 0)
(-0.000130474 -0.000359709 0)
(-0.000131932 -0.000368074 0)
(-0.000133387 -0.000376533 0)
(-0.00013484 -0.000385083 0)
(-0.00013629 -0.000393726 0)
(-0.000137737 -0.000402461 0)
(-0.000139182 -0.000411287 0)
(-0.000140624 -0.000420205 0)
(-0.000142064 -0.000429215 0)
(-0.0001435 -0.000438316 0)
(-0.000144935 -0.000447508 0)
(-0.000146366 -0.000456791 0)
(-0.000147795 -0.000466164 0)
(-0.000149222 -0.000475629 0)
(-0.000150646 -0.000485184 0)
(-0.000152067 -0.000494829 0)
(-0.000153485 -0.000504565 0)
(-0.000154901 -0.00051439 0)
(-0.000156314 -0.000524305 0)
(-0.000157725 -0.00053431 0)
(-0.000159133 -0.000544404 0)
(-0.000160538 -0.000554588 0)
(-0.000161941 -0.000564861 0)
(-0.000163341 -0.000575223 0)
(-0.000164739 -0.000585673 0)
(-0.000166134 -0.000596213 0)
(-0.000167526 -0.00060684 0)
(-0.000168916 -0.000617556 0)
(-0.000170303 -0.000628361 0)
(-0.000171687 -0.000639253 0)
(-0.000173069 -0.000650233 0)
(-0.000174448 -0.000661301 0)
(-0.000175825 -0.000672456 0)
(-0.000177199 -0.000683698 0)
(-0.00017857 -0.000695028 0)
(-0.000179939 -0.000706444 0)
(-0.000181305 -0.000717948 0)
(-0.000182669 -0.000729538 0)
(-0.000184029 -0.000741214 0)
(-0.000185388 -0.000752977 0)
(-0.000186743 -0.000764826 0)
(-0.000188096 -0.000776761 0)
(-0.000189447 -0.000788782 0)
(-0.000190794 -0.000800889 0)
(-0.000192139 -0.000813081 0)
(-0.000193482 -0.000825358 0)
(-0.000194822 -0.000837721 0)
(-0.000196159 -0.000850168 0)
(-0.000197494 -0.0008627 0)
(-0.000198826 -0.000875317 0)
(-0.000200155 -0.000888019 0)
(-0.000201482 -0.000900804 0)
(-0.000202806 -0.000913674 0)
(-0.000204127 -0.000926628 0)
(-0.000205446 -0.000939666 0)
(-0.000206762 -0.000952787 0)
(-0.000208076 -0.000965992 0)
(-0.000209387 -0.00097928 0)
(-0.000210696 -0.000992652 0)
(-0.000212001 -0.00100611 0)
(-0.000213304 -0.00101964 0)
(-0.000214605 -0.00103326 0)
(-0.000215903 -0.00104697 0)
(-0.000217198 -0.00106075 0)
(-0.000218491 -0.00107462 0)
(-0.000219781 -0.00108857 0)
(-0.000221068 -0.0011026 0)
(-0.000222353 -0.00111671 0)
(-0.000223635 -0.0011309 0)
(-0.000224915 -0.00114518 0)
(-0.000226192 -0.00115953 0)
(-0.000227466 -0.00117397 0)
(-0.000228738 -0.00118849 0)
(-0.000230007 -0.00120309 0)
(-0.000231273 -0.00121777 0)
(-0.000232537 -0.00123253 0)
(-0.000233798 -0.00124737 0)
(-0.000235057 -0.00126228 0)
(-0.000236313 -0.00127728 0)
(-0.000237566 -0.00129236 0)
(-0.000238817 -0.00130752 0)
(-0.000240065 -0.00132276 0)
(-0.000241311 -0.00133808 0)
(-0.000242553 -0.00135347 0)
(-0.000243794 -0.00136895 0)
(-0.000245031 -0.0013845 0)
(-0.000246266 -0.00140013 0)
(-0.000247499 -0.00141584 0)
(-0.000248728 -0.00143163 0)
(-0.000249955 -0.0014475 0)
(-0.00025118 -0.00146344 0)
(-0.000252402 -0.00147947 0)
(-0.000253621 -0.00149557 0)
(-0.000254838 -0.00151174 0)
(-0.000256052 -0.001528 0)
(-0.000257263 -0.00154433 0)
(-0.000258472 -0.00156074 0)
(-0.000259678 -0.00157722 0)
(-0.000260881 -0.00159378 0)
(-0.000262082 -0.00161042 0)
(-0.000263281 -0.00162713 0)
(-0.000264476 -0.00164392 0)
(-0.000265669 -0.00166079 0)
(-0.00026686 -0.00167773 0)
(-0.000268048 -0.00169474 0)
(-0.000269233 -0.00171184 0)
(-0.000270415 -0.001729 0)
(-0.000271595 -0.00174625 0)
(-0.000272772 -0.00176356 0)
(-0.000273947 -0.00178095 0)
(-0.000275119 -0.00179842 0)
(-0.000276289 -0.00181596 0)
(-0.000277455 -0.00183358 0)
(-0.00027862 -0.00185126 0)
(-0.000279781 -0.00186903 0)
(-0.00028094 -0.00188686 0)
(-0.000282096 -0.00190477 0)
(-0.00028325 -0.00192275 0)
(-0.000284401 -0.00194081 0)
(-0.00028555 -0.00195894 0)
(-0.000286696 -0.00197714 0)
(-0.000287839 -0.00199542 0)
(-0.000288979 -0.00201376 0)
(-0.000290117 -0.00203218 0)
(-0.000291253 -0.00205067 0)
(-0.000292385 -0.00206924 0)
(-0.000293515 -0.00208787 0)
(-0.000294643 -0.00210658 0)
(-0.000295768 -0.00212536 0)
(-0.00029689 -0.00214421 0)
(-0.00029801 -0.00216313 0)
(-0.000299127 -0.00218212 0)
(-0.000300241 -0.00220118 0)
(-0.000301353 -0.00222032 0)
(-0.000302462 -0.00223952 0)
(-0.000303568 -0.0022588 0)
(-0.000304672 -0.00227814 0)
(-0.000305774 -0.00229756 0)
(-0.000306872 -0.00231704 0)
(-0.000307968 -0.00233659 0)
(-0.000309062 -0.00235622 0)
(-0.000310152 -0.00237591 0)
(-0.000311241 -0.00239567 0)
(-0.000312326 -0.0024155 0)
(-0.000313409 -0.0024354 0)
(-0.000314489 -0.00245537 0)
(-0.000315567 -0.00247541 0)
(-0.000316642 -0.00249552 0)
(-0.000317714 -0.00251569 0)
(-0.000318784 -0.00253593 0)
(-0.000319851 -0.00255624 0)
(-0.000320916 -0.00257662 0)
(-0.000321978 -0.00259706 0)
(-0.000323037 -0.00261757 0)
(-0.000324094 -0.00263815 0)
(-0.000325148 -0.0026588 0)
(-0.000326199 -0.00267951 0)
(-0.000327248 -0.00270029 0)
(-0.000328294 -0.00272114 0)
(-0.000329338 -0.00274205 0)
(-0.000330379 -0.00276303 0)
(-0.000331417 -0.00278407 0)
(-0.000332453 -0.00280519 0)
(-0.000333486 -0.00282636 0)
(-0.000334516 -0.0028476 0)
(-0.000335544 -0.00286891 0)
(-0.00033657 -0.00289028 0)
(-0.000337592 -0.00291172 0)
(-0.000338612 -0.00293322 0)
(-0.000339629 -0.00295479 0)
(-0.000340644 -0.00297642 0)
(-0.000341656 -0.00299812 0)
(-0.000342666 -0.00301988 0)
(-0.000343673 -0.0030417 0)
(-0.000344677 -0.00306359 0)
(-0.000345679 -0.00308554 0)
(-0.000346678 -0.00310755 0)
(-0.000347674 -0.00312963 0)
(-0.000348668 -0.00315177 0)
(-0.000349659 -0.00317398 0)
(-0.000350647 -0.00319625 0)
(-0.000351633 -0.00321858 0)
(-0.000352616 -0.00324097 0)
(-0.000353597 -0.00326342 0)
(-0.000354575 -0.00328594 0)
(-0.000355551 -0.00330852 0)
(-0.000356523 -0.00333116 0)
(-0.000357493 -0.00335386 0)
(-0.000358461 -0.00337663 0)
(-0.000359426 -0.00339945 0)
(-0.000360388 -0.00342234 0)
(-0.000361348 -0.00344529 0)
(-0.000362305 -0.00346829 0)
(-0.000363259 -0.00349136 0)
(-0.000364211 -0.00351449 0)
(-0.00036516 -0.00353768 0)
(-0.000366107 -0.00356093 0)
(-0.000367051 -0.00358424 0)
(-0.000367992 -0.00360761 0)
(-0.000368931 -0.00363104 0)
(-0.000369867 -0.00365453 0)
(-0.0003708 -0.00367808 0)
(-0.000371731 -0.00370169 0)
(-0.000372659 -0.00372536 0)
(-0.000373585 -0.00374908 0)
(-0.000374508 -0.00377287 0)
(-0.000375428 -0.00379671 0)
(-0.000376346 -0.00382061 0)
(-0.000377261 -0.00384457 0)
(-0.000378174 -0.00386859 0)
(-0.000379083 -0.00389266 0)
(-0.000379991 -0.0039168 0)
(-0.000380895 -0.00394099 0)
(-0.000381797 -0.00396523 0)
(-0.000382697 -0.00398954 0)
(-0.000383593 -0.0040139 0)
(-0.000384487 -0.00403832 0)
(-0.000385379 -0.0040628 0)
(-0.000386268 -0.00408733 0)
(-0.000387154 -0.00411192 0)
(-0.000388038 -0.00413656 0)
(-0.000388919 -0.00416126 0)
(-0.000389797 -0.00418602 0)
(-0.000390673 -0.00421083 0)
(-0.000391546 -0.0042357 0)
(-0.000392417 -0.00426062 0)
(-0.000393284 -0.0042856 0)
(-0.00039415 -0.00431063 0)
(-0.000395012 -0.00433572 0)
(-0.000395872 -0.00436086 0)
(-0.00039673 -0.00438606 0)
(-0.000397585 -0.00441131 0)
(-0.000398437 -0.00443662 0)
(-0.000399286 -0.00446198 0)
(-0.000400133 -0.00448739 0)
(-0.000400978 -0.00451286 0)
(-0.000401819 -0.00453838 0)
(-0.000402658 -0.00456395 0)
(-0.000403495 -0.00458958 0)
(-0.000404329 -0.00461526 0)
(-0.00040516 -0.004641 0)
(-0.000405988 -0.00466678 0)
(-0.000406814 -0.00469262 0)
(-0.000407638 -0.00471851 0)
(-0.000408458 -0.00474445 0)
(-0.000409276 -0.00477045 0)
(-0.000410092 -0.0047965 0)
(-0.000410905 -0.0048226 0)
(-0.000411715 -0.00484875 0)
(-0.000412523 -0.00487495 0)
(-0.000413327 -0.0049012 0)
(-0.00041413 -0.0049275 0)
(-0.00041493 -0.00495386 0)
(-0.000415727 -0.00498026 0)
(-0.000416521 -0.00500672 0)
(-0.000417313 -0.00503323 0)
(-0.000418102 -0.00505978 0)
(-0.000418889 -0.00508639 0)
(-0.000419673 -0.00511305 0)
(-0.000420454 -0.00513975 0)
(-0.000421233 -0.00516651 0)
(-0.000422009 -0.00519331 0)
(-0.000422783 -0.00522017 0)
(-0.000423554 -0.00524707 0)
(-0.000424322 -0.00527402 0)
(-0.000425087 -0.00530102 0)
(-0.00042585 -0.00532807 0)
(-0.000426611 -0.00535517 0)
(-0.000427369 -0.00538232 0)
(-0.000428124 -0.00540951 0)
(-0.000428876 -0.00543675 0)
(-0.000429626 -0.00546404 0)
(-0.000430373 -0.00549138 0)
(-0.000431118 -0.00551876 0)
(-0.00043186 -0.00554619 0)
(-0.0004326 -0.00557367 0)
(-0.000433336 -0.0056012 0)
(-0.000434071 -0.00562877 0)
(-0.000434802 -0.00565639 0)
(-0.000435531 -0.00568405 0)
(-0.000436257 -0.00571176 0)
(-0.000436981 -0.00573952 0)
(-0.000437702 -0.00576732 0)
(-0.000438421 -0.00579517 0)
(-0.000439136 -0.00582307 0)
(-0.00043985 -0.00585101 0)
(-0.00044056 -0.00587899 0)
(-0.000441268 -0.00590702 0)
(-0.000441973 -0.0059351 0)
(-0.000442676 -0.00596322 0)
(-0.000443376 -0.00599138 0)
(-0.000444074 -0.00601959 0)
(-0.000444769 -0.00604784 0)
(-0.000445461 -0.00607614 0)
(-0.00044615 -0.00610448 0)
(-0.000446837 -0.00613286 0)
(-0.000447522 -0.00616129 0)
(-0.000448203 -0.00618976 0)
(-0.000448883 -0.00621828 0)
(-0.000449559 -0.00624683 0)
(-0.000450233 -0.00627543 0)
(-0.000450904 -0.00630408 0)
(-0.000451573 -0.00633276 0)
(-0.000452239 -0.00636149 0)
(-0.000452902 -0.00639026 0)
(-0.000453563 -0.00641907 0)
(-0.000454221 -0.00644793 0)
(-0.000454877 -0.00647682 0)
(-0.00045553 -0.00650576 0)
(-0.00045618 -0.00653474 0)
(-0.000456827 -0.00656376 0)
(-0.000457472 -0.00659282 0)
(-0.000458115 -0.00662192 0)
(-0.000458755 -0.00665106 0)
(-0.000459392 -0.00668024 0)
(-0.000460026 -0.00670947 0)
(-0.000460658 -0.00673873 0)
(-0.000461288 -0.00676803 0)
(-0.000461914 -0.00679738 0)
(-0.000462538 -0.00682676 0)
(-0.00046316 -0.00685618 0)
(-0.000463779 -0.00688565 0)
(-0.000464395 -0.00691515 0)
(-0.000465008 -0.00694469 0)
(-0.000465619 -0.00697427 0)
(-0.000466228 -0.00700388 0)
(-0.000466833 -0.00703354 0)
(-0.000467436 -0.00706323 0)
(-0.000468037 -0.00709297 0)
(-0.000468635 -0.00712274 0)
(-0.00046923 -0.00715255 0)
(-0.000469822 -0.00718239 0)
(-0.000470412 -0.00721228 0)
(-0.000471 -0.0072422 0)
(-0.000471584 -0.00727216 0)
(-0.000472167 -0.00730215 0)
(-0.000472746 -0.00733219 0)
(-0.000473323 -0.00736226 0)
(-0.000473897 -0.00739236 0)
(-0.000474469 -0.0074225 0)
(-0.000475038 -0.00745268 0)
(-0.000475604 -0.0074829 0)
(-0.000476168 -0.00751315 0)
(-0.000476729 -0.00754343 0)
(-0.000477287 -0.00757375 0)
(-0.000477843 -0.00760411 0)
(-0.000478397 -0.0076345 0)
(-0.000478947 -0.00766493 0)
(-0.000479495 -0.00769539 0)
(-0.000480041 -0.00772589 0)
(-0.000480583 -0.00775642 0)
(-0.000481124 -0.00778699 0)
(-0.000481661 -0.00781759 0)
(-0.000482196 -0.00784822 0)
(-0.000482728 -0.00787889 0)
(-0.000483258 -0.00790959 0)
(-0.000483785 -0.00794033 0)
(-0.000484309 -0.00797109 0)
(-0.000484831 -0.0080019 0)
(-0.00048535 -0.00803273 0)
(-0.000485867 -0.0080636 0)
(-0.000486381 -0.0080945 0)
(-0.000486892 -0.00812543 0)
(-0.000487401 -0.0081564 0)
(-0.000487907 -0.00818739 0)
(-0.00048841 -0.00821842 0)
(-0.000488911 -0.00824949 0)
(-0.000489409 -0.00828058 0)
(-0.000489905 -0.0083117 0)
(-0.000490398 -0.00834286 0)
(-0.000490888 -0.00837405 0)
(-0.000491376 -0.00840527 0)
(-0.000491861 -0.00843651 0)
(-0.000492343 -0.00846779 0)
(-0.000492823 -0.0084991 0)
(-0.0004933 -0.00853045 0)
(-0.000493775 -0.00856182 0)
(-0.000494247 -0.00859322 0)
(-0.000494716 -0.00862465 0)
(-0.000495183 -0.00865611 0)
(-0.000495647 -0.0086876 0)
(-0.000496109 -0.00871912 0)
(-0.000496568 -0.00875067 0)
(-0.000497024 -0.00878225 0)
(-0.000497477 -0.00881385 0)
(-0.000497928 -0.00884549 0)
(-0.000498377 -0.00887715 0)
(-0.000498823 -0.00890885 0)
(-0.000499266 -0.00894057 0)
(-0.000499706 -0.00897232 0)
(-0.000500144 -0.00900409 0)
(-0.000500579 -0.0090359 0)
(-0.000501012 -0.00906773 0)
(-0.000501442 -0.00909959 0)
(-0.000501869 -0.00913147 0)
(-0.000502294 -0.00916339 0)
(-0.000502716 -0.00919533 0)
(-0.000503136 -0.0092273 0)
(-0.000503553 -0.00925929 0)
(-0.000503967 -0.00929131 0)
(-0.000504379 -0.00932336 0)
(-0.000504788 -0.00935543 0)
(-0.000505194 -0.00938753 0)
(-0.000505598 -0.00941965 0)
(-0.000505999 -0.0094518 0)
(-0.000506398 -0.00948397 0)
(-0.000506794 -0.00951617 0)
(-0.000507187 -0.0095484 0)
(-0.000507578 -0.00958065 0)
(-0.000507966 -0.00961292 0)
(-0.000508351 -0.00964522 0)
(-0.000508734 -0.00967755 0)
(-0.000509114 -0.0097099 0)
(-0.000509492 -0.00974227 0)
(-0.000509867 -0.00977466 0)
(-0.000510239 -0.00980708 0)
(-0.000510609 -0.00983953 0)
(-0.000510976 -0.00987199 0)
(-0.00051134 -0.00990448 0)
(-0.000511702 -0.009937 0)
(-0.000512062 -0.00996953 0)
(-0.000512418 -0.0100021 0)
(-0.000512772 -0.0100347 0)
(-0.000513123 -0.0100673 0)
(-0.000513472 -0.0100999 0)
(-0.000513818 -0.0101325 0)
(-0.000514162 -0.0101652 0)
(-0.000514503 -0.0101979 0)
(-0.000514841 -0.0102306 0)
(-0.000515177 -0.0102634 0)
(-0.00051551 -0.0102961 0)
(-0.00051584 -0.0103289 0)
(-0.000516168 -0.0103617 0)
(-0.000516493 -0.0103945 0)
(-0.000516815 -0.0104273 0)
(-0.000517135 -0.0104602 0)
(-0.000517453 -0.0104931 0)
(-0.000517767 -0.010526 0)
(-0.000518079 -0.0105589 0)
(-0.000518389 -0.0105918 0)
(-0.000518695 -0.0106248 0)
(-0.000519 -0.0106578 0)
(-0.000519301 -0.0106908 0)
(-0.0005196 -0.0107238 0)
(-0.000519896 -0.0107568 0)
(-0.00052019 -0.0107899 0)
(-0.000520481 -0.010823 0)
(-0.00052077 -0.010856 0)
(-0.000521055 -0.0108892 0)
(-0.000521339 -0.0109223 0)
(-0.000521619 -0.0109554 0)
(-0.000521897 -0.0109886 0)
(-0.000522172 -0.0110218 0)
(-0.000522445 -0.011055 0)
(-0.000522715 -0.0110882 0)
(-0.000522983 -0.0111214 0)
(-0.000523247 -0.0111547 0)
(-0.00052351 -0.0111879 0)
(-0.000523769 -0.0112212 0)
(-0.000524026 -0.0112545 0)
(-0.000524281 -0.0112878 0)
(-0.000524532 -0.0113212 0)
(-0.000524781 -0.0113545 0)
(-0.000525028 -0.0113879 0)
(-0.000525272 -0.0114212 0)
(-0.000525513 -0.0114546 0)
(-0.000525752 -0.011488 0)
(-0.000525988 -0.0115215 0)
(-0.000526221 -0.0115549 0)
(-0.000526452 -0.0115884 0)
(-0.00052668 -0.0116218 0)
(-0.000526905 -0.0116553 0)
(-0.000527128 -0.0116888 0)
(-0.000527348 -0.0117223 0)
(-0.000527566 -0.0117558 0)
(-0.000527781 -0.0117894 0)
(-0.000527994 -0.0118229 0)
(-0.000528203 -0.0118565 0)
(-0.00052841 -0.0118901 0)
(-0.000528615 -0.0119237 0)
(-0.000528817 -0.0119573 0)
(-0.000529016 -0.0119909 0)
(-0.000529213 -0.0120245 0)
(-0.000529407 -0.0120582 0)
(-0.000529598 -0.0120918 0)
(-0.000529787 -0.0121255 0)
(-0.000529973 -0.0121592 0)
(-0.000530157 -0.0121929 0)
(-0.000530338 -0.0122266 0)
(-0.000530516 -0.0122603 0)
(-0.000530692 -0.012294 0)
(-0.000530865 -0.0123277 0)
(-0.000531035 -0.0123615 0)
(-0.000531203 -0.0123952 0)
(-0.000531368 -0.012429 0)
(-0.000531531 -0.0124628 0)
(-0.000531691 -0.0124966 0)
(-0.000531848 -0.0125304 0)
(-0.000532003 -0.0125642 0)
(-0.000532155 -0.012598 0)
(-0.000532304 -0.0126318 0)
(-0.000532451 -0.0126657 0)
(-0.000532595 -0.0126995 0)
(-0.000532737 -0.0127334 0)
(-0.000532876 -0.0127672 0)
(-0.000533012 -0.0128011 0)
(-0.000533146 -0.012835 0)
(-0.000533277 -0.0128689 0)
(-0.000533406 -0.0129028 0)
(-0.000533532 -0.0129367 0)
(-0.000533655 -0.0129706 0)
(-0.000533775 -0.0130045 0)
(-0.000533893 -0.0130384 0)
(-0.000534009 -0.0130724 0)
(-0.000534122 -0.0131063 0)
(-0.000534232 -0.0131403 0)
(-0.000534339 -0.0131742 0)
(-0.000534444 -0.0132082 0)
(-0.000534546 -0.0132422 0)
(-0.000534646 -0.0132761 0)
(-0.000534743 -0.0133101 0)
(-0.000534837 -0.0133441 0)
(-0.000534929 -0.0133781 0)
(-0.000535018 -0.0134121 0)
(-0.000535105 -0.0134461 0)
(-0.000535189 -0.0134801 0)
(-0.00053527 -0.0135142 0)
(-0.000535349 -0.0135482 0)
(-0.000535425 -0.0135822 0)
(-0.000535498 -0.0136162 0)
(-0.000535569 -0.0136503 0)
(-0.000535637 -0.0136843 0)
(-0.000535703 -0.0137184 0)
(-0.000535766 -0.0137524 0)
(-0.000535826 -0.0137865 0)
(-0.000535884 -0.0138205 0)
(-0.00053594 -0.0138546 0)
(-0.000535992 -0.0138887 0)
(-0.000536042 -0.0139227 0)
(-0.00053609 -0.0139568 0)
(-0.000536135 -0.0139909 0)
(-0.000536178 -0.0140249 0)
(-0.000536218 -0.014059 0)
(-0.000536256 -0.0140931 0)
(-0.000536292 -0.0141272 0)
(-0.000536326 -0.0141613 0)
(-0.000536357 -0.0141954 0)
(-0.000536387 -0.0142295 0)
(-0.000536414 -0.0142635 0)
(-0.00053644 -0.0142976 0)
(-0.000536464 -0.0143317 0)
(-0.000536488 -0.0143658 0)
(-0.00053651 -0.0144 0)
(-0.000536531 -0.0144341 0)
(-0.000536551 -0.0144682 0)
(-0.00053657 -0.0145023 0)
(-0.000536586 -0.0145365 0)
(-7.66327e-07 -7.43901e-07 0)
(-2.48313e-06 -1.89391e-06 0)
(-4.12738e-06 -2.76722e-06 0)
(-5.71374e-06 -3.52392e-06 0)
(-7.27209e-06 -4.24946e-06 0)
(-8.81978e-06 -4.99092e-06 0)
(-1.03656e-05 -5.77661e-06 0)
(-1.19137e-05 -6.62477e-06 0)
(-1.34657e-05 -7.54768e-06 0)
(-1.50221e-05 -8.55384e-06 0)
(-1.65828e-05 -9.64925e-06 0)
(-1.81471e-05 -1.08382e-05 0)
(-1.97143e-05 -1.21237e-05 0)
(-2.12838e-05 -1.3508e-05 0)
(-2.28549e-05 -1.49926e-05 0)
(-2.44268e-05 -1.65786e-05 0)
(-2.59991e-05 -1.82667e-05 0)
(-2.75713e-05 -2.00575e-05 0)
(-2.91429e-05 -2.19511e-05 0)
(-3.07136e-05 -2.39478e-05 0)
(-3.2283e-05 -2.60477e-05 0)
(-3.38509e-05 -2.82506e-05 0)
(-3.54171e-05 -3.05565e-05 0)
(-3.69814e-05 -3.29653e-05 0)
(-3.85437e-05 -3.54769e-05 0)
(-4.01039e-05 -3.80911e-05 0)
(-4.16618e-05 -4.08078e-05 0)
(-4.32174e-05 -4.36268e-05 0)
(-4.47707e-05 -4.65478e-05 0)
(-4.63216e-05 -4.95708e-05 0)
(-4.787e-05 -5.26955e-05 0)
(-4.9416e-05 -5.59217e-05 0)
(-5.09595e-05 -5.92493e-05 0)
(-5.25004e-05 -6.26782e-05 0)
(-5.40389e-05 -6.6208e-05 0)
(-5.55749e-05 -6.98387e-05 0)
(-5.71083e-05 -7.35701e-05 0)
(-5.86392e-05 -7.7402e-05 0)
(-6.01676e-05 -8.13342e-05 0)
(-6.16934e-05 -8.53665e-05 0)
(-6.32167e-05 -8.94988e-05 0)
(-6.47375e-05 -9.3731e-05 0)
(-6.62557e-05 -9.80628e-05 0)
(-6.77714e-05 -0.000102494 0)
(-6.92845e-05 -0.000107025 0)
(-7.07951e-05 -0.000111654 0)
(-7.23032e-05 -0.000116383 0)
(-7.38087e-05 -0.000121211 0)
(-7.53116e-05 -0.000126137 0)
(-7.68121e-05 -0.000131161 0)
(-7.831e-05 -0.000136284 0)
(-7.98053e-05 -0.000141505 0)
(-8.12982e-05 -0.000146824 0)
(-8.27884e-05 -0.000152241 0)
(-8.42762e-05 -0.000157756 0)
(-8.57614e-05 -0.000163368 0)
(-8.7244e-05 -0.000169077 0)
(-8.87242e-05 -0.000174883 0)
(-9.02017e-05 -0.000180787 0)
(-9.16768e-05 -0.000186787 0)
(-9.31493e-05 -0.000192884 0)
(-9.46192e-05 -0.000199077 0)
(-9.60867e-05 -0.000205367 0)
(-9.75516e-05 -0.000211753 0)
(-9.90139e-05 -0.000218234 0)
(-0.000100474 -0.000224812 0)
(-0.000101931 -0.000231485 0)
(-0.000103386 -0.000238254 0)
(-0.000104838 -0.000245118 0)
(-0.000106288 -0.000252077 0)
(-0.000107735 -0.000259131 0)
(-0.000109179 -0.00026628 0)
(-0.000110621 -0.000273523 0)
(-0.000112061 -0.000280861 0)
(-0.000113498 -0.000288294 0)
(-0.000114932 -0.00029582 0)
(-0.000116364 -0.000303441 0)
(-0.000117793 -0.000311155 0)
(-0.00011922 -0.000318963 0)
(-0.000120645 -0.000326864 0)
(-0.000122066 -0.000334859 0)
(-0.000123485 -0.000342947 0)
(-0.000124902 -0.000351127 0)
(-0.000126316 -0.000359401 0)
(-0.000127728 -0.000367767 0)
(-0.000129137 -0.000376226 0)
(-0.000130543 -0.000384777 0)
(-0.000131947 -0.00039342 0)
(-0.000133349 -0.000402156 0)
(-0.000134748 -0.000410983 0)
(-0.000136144 -0.000419901 0)
(-0.000137538 -0.000428911 0)
(-0.000138929 -0.000438013 0)
(-0.000140318 -0.000447205 0)
(-0.000141704 -0.000456489 0)
(-0.000143088 -0.000465863 0)
(-0.000144469 -0.000475328 0)
(-0.000145847 -0.000484884 0)
(-0.000147223 -0.00049453 0)
(-0.000148597 -0.000504266 0)
(-0.000149968 -0.000514092 0)
(-0.000151336 -0.000524007 0)
(-0.000152702 -0.000534013 0)
(-0.000154065 -0.000544108 0)
(-0.000155426 -0.000554292 0)
(-0.000156784 -0.000564565 0)
(-0.00015814 -0.000574928 0)
(-0.000159493 -0.000585379 0)
(-0.000160844 -0.000595919 0)
(-0.000162192 -0.000606547 0)
(-0.000163538 -0.000617264 0)
(-0.000164881 -0.000628068 0)
(-0.000166221 -0.000638961 0)
(-0.000167559 -0.000649942 0)
(-0.000168894 -0.00066101 0)
(-0.000170227 -0.000672166 0)
(-0.000171558 -0.000683409 0)
(-0.000172885 -0.000694739 0)
(-0.000174211 -0.000706156 0)
(-0.000175533 -0.00071766 0)
(-0.000176854 -0.000729251 0)
(-0.000178171 -0.000740928 0)
(-0.000179486 -0.000752691 0)
(-0.000180799 -0.000764541 0)
(-0.000182109 -0.000776476 0)
(-0.000183416 -0.000788498 0)
(-0.000184721 -0.000800605 0)
(-0.000186024 -0.000812797 0)
(-0.000187324 -0.000825075 0)
(-0.000188621 -0.000837438 0)
(-0.000189916 -0.000849886 0)
(-0.000191208 -0.000862419 0)
(-0.000192498 -0.000875037 0)
(-0.000193785 -0.000887739 0)
(-0.00019507 -0.000900525 0)
(-0.000196352 -0.000913395 0)
(-0.000197631 -0.00092635 0)
(-0.000198908 -0.000939388 0)
(-0.000200183 -0.00095251 0)
(-0.000201455 -0.000965715 0)
(-0.000202724 -0.000979004 0)
(-0.000203991 -0.000992376 0)
(-0.000205255 -0.00100583 0)
(-0.000206517 -0.00101937 0)
(-0.000207776 -0.00103299 0)
(-0.000209033 -0.00104669 0)
(-0.000210287 -0.00106048 0)
(-0.000211539 -0.00107434 0)
(-0.000212788 -0.00108829 0)
(-0.000214034 -0.00110232 0)
(-0.000215278 -0.00111644 0)
(-0.00021652 -0.00113063 0)
(-0.000217759 -0.00114491 0)
(-0.000218995 -0.00115926 0)
(-0.000220229 -0.0011737 0)
(-0.00022146 -0.00118822 0)
(-0.000222689 -0.00120282 0)
(-0.000223915 -0.0012175 0)
(-0.000225139 -0.00123226 0)
(-0.00022636 -0.0012471 0)
(-0.000227579 -0.00126202 0)
(-0.000228795 -0.00127702 0)
(-0.000230009 -0.0012921 0)
(-0.00023122 -0.00130726 0)
(-0.000232428 -0.0013225 0)
(-0.000233634 -0.00133781 0)
(-0.000234837 -0.00135321 0)
(-0.000236038 -0.00136869 0)
(-0.000237237 -0.00138424 0)
(-0.000238432 -0.00139987 0)
(-0.000239626 -0.00141558 0)
(-0.000240816 -0.00143137 0)
(-0.000242004 -0.00144724 0)
(-0.00024319 -0.00146319 0)
(-0.000244373 -0.00147921 0)
(-0.000245554 -0.00149531 0)
(-0.000246732 -0.00151149 0)
(-0.000247907 -0.00152774 0)
(-0.00024908 -0.00154407 0)
(-0.00025025 -0.00156048 0)
(-0.000251418 -0.00157697 0)
(-0.000252584 -0.00159353 0)
(-0.000253746 -0.00161017 0)
(-0.000254907 -0.00162688 0)
(-0.000256064 -0.00164367 0)
(-0.000257219 -0.00166054 0)
(-0.000258372 -0.00167748 0)
(-0.000259522 -0.00169449 0)
(-0.00026067 -0.00171159 0)
(-0.000261815 -0.00172875 0)
(-0.000262957 -0.001746 0)
(-0.000264097 -0.00176331 0)
(-0.000265234 -0.00178071 0)
(-0.000266369 -0.00179817 0)
(-0.000267502 -0.00181571 0)
(-0.000268631 -0.00183333 0)
(-0.000269759 -0.00185102 0)
(-0.000270883 -0.00186878 0)
(-0.000272005 -0.00188662 0)
(-0.000273125 -0.00190453 0)
(-0.000274242 -0.00192251 0)
(-0.000275357 -0.00194057 0)
(-0.000276469 -0.0019587 0)
(-0.000277578 -0.0019769 0)
(-0.000278685 -0.00199518 0)
(-0.000279789 -0.00201352 0)
(-0.000280891 -0.00203194 0)
(-0.000281991 -0.00205044 0)
(-0.000283087 -0.002069 0)
(-0.000284182 -0.00208764 0)
(-0.000285273 -0.00210634 0)
(-0.000286362 -0.00212512 0)
(-0.000287449 -0.00214397 0)
(-0.000288533 -0.00216289 0)
(-0.000289615 -0.00218189 0)
(-0.000290694 -0.00220095 0)
(-0.00029177 -0.00222008 0)
(-0.000292844 -0.00223929 0)
(-0.000293915 -0.00225856 0)
(-0.000294984 -0.00227791 0)
(-0.000296051 -0.00229732 0)
(-0.000297114 -0.00231681 0)
(-0.000298175 -0.00233636 0)
(-0.000299234 -0.00235599 0)
(-0.00030029 -0.00237568 0)
(-0.000301344 -0.00239544 0)
(-0.000302395 -0.00241528 0)
(-0.000303444 -0.00243518 0)
(-0.00030449 -0.00245515 0)
(-0.000305533 -0.00247518 0)
(-0.000306574 -0.00249529 0)
(-0.000307612 -0.00251546 0)
(-0.000308648 -0.00253571 0)
(-0.000309681 -0.00255602 0)
(-0.000310712 -0.00257639 0)
(-0.00031174 -0.00259684 0)
(-0.000312766 -0.00261735 0)
(-0.000313789 -0.00263793 0)
(-0.00031481 -0.00265858 0)
(-0.000315828 -0.00267929 0)
(-0.000316843 -0.00270007 0)
(-0.000317856 -0.00272092 0)
(-0.000318867 -0.00274183 0)
(-0.000319875 -0.00276281 0)
(-0.00032088 -0.00278386 0)
(-0.000321883 -0.00280497 0)
(-0.000322883 -0.00282614 0)
(-0.000323881 -0.00284739 0)
(-0.000324876 -0.00286869 0)
(-0.000325869 -0.00289007 0)
(-0.000326859 -0.00291151 0)
(-0.000327847 -0.00293301 0)
(-0.000328832 -0.00295458 0)
(-0.000329814 -0.00297621 0)
(-0.000330794 -0.0029979 0)
(-0.000331772 -0.00301966 0)
(-0.000332746 -0.00304149 0)
(-0.000333719 -0.00306338 0)
(-0.000334689 -0.00308533 0)
(-0.000335656 -0.00310734 0)
(-0.000336621 -0.00312942 0)
(-0.000337583 -0.00315156 0)
(-0.000338543 -0.00317377 0)
(-0.0003395 -0.00319604 0)
(-0.000340454 -0.00321837 0)
(-0.000341406 -0.00324076 0)
(-0.000342356 -0.00326322 0)
(-0.000343303 -0.00328573 0)
(-0.000344247 -0.00330831 0)
(-0.000345189 -0.00333096 0)
(-0.000346129 -0.00335366 0)
(-0.000347065 -0.00337642 0)
(-0.000348 -0.00339925 0)
(-0.000348931 -0.00342214 0)
(-0.000349861 -0.00344508 0)
(-0.000350787 -0.00346809 0)
(-0.000351711 -0.00349116 0)
(-0.000352633 -0.00351429 0)
(-0.000353552 -0.00353748 0)
(-0.000354469 -0.00356073 0)
(-0.000355383 -0.00358405 0)
(-0.000356294 -0.00360742 0)
(-0.000357203 -0.00363085 0)
(-0.000358109 -0.00365434 0)
(-0.000359013 -0.00367789 0)
(-0.000359914 -0.00370149 0)
(-0.000360813 -0.00372516 0)
(-0.000361709 -0.00374889 0)
(-0.000362603 -0.00377267 0)
(-0.000363494 -0.00379652 0)
(-0.000364383 -0.00382042 0)
(-0.000365269 -0.00384438 0)
(-0.000366152 -0.0038684 0)
(-0.000367033 -0.00389247 0)
(-0.000367912 -0.0039166 0)
(-0.000368787 -0.0039408 0)
(-0.000369661 -0.00396504 0)
(-0.000370532 -0.00398935 0)
(-0.0003714 -0.00401371 0)
(-0.000372266 -0.00403813 0)
(-0.000373129 -0.00406261 0)
(-0.000373989 -0.00408714 0)
(-0.000374848 -0.00411173 0)
(-0.000375703 -0.00413637 0)
(-0.000376556 -0.00416108 0)
(-0.000377407 -0.00418583 0)
(-0.000378255 -0.00421065 0)
(-0.0003791 -0.00423551 0)
(-0.000379943 -0.00426044 0)
(-0.000380783 -0.00428542 0)
(-0.000381621 -0.00431045 0)
(-0.000382456 -0.00433554 0)
(-0.000383289 -0.00436068 0)
(-0.000384119 -0.00438588 0)
(-0.000384947 -0.00441113 0)
(-0.000385772 -0.00443644 0)
(-0.000386595 -0.0044618 0)
(-0.000387415 -0.00448721 0)
(-0.000388232 -0.00451268 0)
(-0.000389047 -0.0045382 0)
(-0.00038986 -0.00456378 0)
(-0.000390669 -0.00458941 0)
(-0.000391477 -0.00461509 0)
(-0.000392282 -0.00464082 0)
(-0.000393084 -0.00466661 0)
(-0.000393884 -0.00469245 0)
(-0.000394681 -0.00471834 0)
(-0.000395475 -0.00474428 0)
(-0.000396268 -0.00477028 0)
(-0.000397057 -0.00479633 0)
(-0.000397844 -0.00482242 0)
(-0.000398629 -0.00484858 0)
(-0.000399411 -0.00487478 0)
(-0.00040019 -0.00490103 0)
(-0.000400967 -0.00492734 0)
(-0.000401741 -0.00495369 0)
(-0.000402513 -0.0049801 0)
(-0.000403282 -0.00500655 0)
(-0.000404049 -0.00503306 0)
(-0.000404813 -0.00505962 0)
(-0.000405575 -0.00508622 0)
(-0.000406334 -0.00511288 0)
(-0.000407091 -0.00513959 0)
(-0.000407845 -0.00516634 0)
(-0.000408596 -0.00519315 0)
(-0.000409345 -0.00522 0)
(-0.000410091 -0.00524691 0)
(-0.000410835 -0.00527386 0)
(-0.000411577 -0.00530086 0)
(-0.000412315 -0.00532791 0)
(-0.000413052 -0.00535501 0)
(-0.000413785 -0.00538216 0)
(-0.000414517 -0.00540935 0)
(-0.000415245 -0.00543659 0)
(-0.000415971 -0.00546388 0)
(-0.000416695 -0.00549122 0)
(-0.000417416 -0.00551861 0)
(-0.000418134 -0.00554604 0)
(-0.00041885 -0.00557352 0)
(-0.000419564 -0.00560104 0)
(-0.000420275 -0.00562861 0)
(-0.000420983 -0.00565623 0)
(-0.000421689 -0.0056839 0)
(-0.000422392 -0.00571161 0)
(-0.000423093 -0.00573937 0)
(-0.000423791 -0.00576717 0)
(-0.000424487 -0.00579502 0)