/*--------------------------------*- C++ -*----------------------------------*\
| =========                 |                                                 |
| \\      /  F ield         | foam-extend: Open Source CFD                    |
|  \\    /   O peration     | Version:     4.0                                |
|   \\  /    A nd           | Web:         http://www.foam-extend.org         |
|    \\/     M anipulation  |                                                 |
\*---------------------------------------------------------------------------*/
FoamFile
{
    version     2.0;
    format      ascii;
    class       volScalarField;
    location    "1";
    object      epsilonEq;
}
// * * * * * * * * * * * * * * * * * * * * * * * * * * * * * * * * * * * * * //

dimensions      [0 0 0 0 0 0 0];

internalField   nonuniform List<scalar> 
40960
(
0.000479284
0.000445537
0.000430804
0.000424989
0.000424042
0.000425332
0.000427485
0.000429831
0.000432055
0.000434017
0.000435665
0.000436994
0.000438019
0.000438769
0.000439275
0.000439569
0.000439681
0.000439641
0.000439471
0.000439195
0.000438831
0.000438395
0.000437901
0.000437359
0.00043678
0.00043617
0.000435537
0.000434885
0.000434218
0.000433541
0.000432854
0.000432161
0.000431463
0.000430761
0.000430057
0.00042935
0.000428642
0.000427933
0.000427223
0.000426513
0.000425803
0.000425092
0.000424381
0.00042367
0.00042296
0.000422249
0.000421538
0.000420828
0.000420117
0.000419406
0.000418696
0.000417985
0.000417275
0.000416565
0.000415854
0.000415144
0.000414434
0.000413723
0.000413013
0.000412303
0.000411592
0.000410882
0.000410172
0.000409462
0.000408751
0.000408041
0.000407331
0.000406621
0.00040591
0.0004052
0.00040449
0.00040378
0.000403069
0.000402359
0.000401649
0.000400939
0.000400228
0.000399518
0.000398808
0.000398098
0.000397387
0.000396677
0.000395967
0.000395257
0.000394546
0.000393836
0.000393126
0.000392416
0.000391705
0.000390995
0.000390285
0.000389575
0.000388864
0.000388154
0.000387444
0.000386734
0.000386023
0.000385313
0.000384603
0.000383893
0.000383182
0.000382472
0.000381762
0.000381052
0.000380341
0.000379631
0.000378921
0.000378211
0.0003775
0.00037679
0.00037608
0.00037537
0.000374659
0.000373949
0.000373239
0.000372529
0.000371818
0.000371108
0.000370398
0.000369688
0.000368977
0.000368267
0.000367557
0.000366847
0.000366136
0.000365426
0.000364716
0.000364006
0.000363295
0.000362585
0.000361875
0.000361165
0.000360454
0.000359744
0.000359034
0.000358324
0.000357613
0.000356903
0.000356193
0.000355483
0.000354772
0.000354062
0.000353352
0.000352642
0.000351931
0.000351221
0.000350511
0.000349801
0.00034909
0.00034838
0.00034767
0.00034696
0.000346249
0.000345539
0.000344829
0.000344119
0.000343408
0.000342698
0.000341988
0.000341278
0.000340567
0.000339857
0.000339147
0.000338437
0.000337726
0.000337016
0.000336306
0.000335596
0.000334885
0.000334175
0.000333465
0.000332755
0.000332044
0.000331334
0.000330624
0.000329914
0.000329203
0.000328493
0.000327783
0.000327073
0.000326362
0.000325652
0.000324942
0.000324232
0.000323521
0.000322811
0.000322101
0.000321391
0.00032068
0.00031997
0.00031926
0.00031855
0.000317839
0.000317129
0.000316419
0.000315709
0.000314999
0.000314288
0.000313578
0.000312868
0.000312158
0.000311447
0.000310737
0.000310027
0.000309317
0.000308606
0.000307896
0.000307186
0.000306476
0.000305765
0.000305055
0.000304345
0.000303635
0.000302924
0.000302214
0.000301504
0.000300794
0.000300083
0.000299373
0.000298663
0.000297953
0.000297242
0.000296532
0.000295822
0.000295112
0.000294401
0.000293691
0.000292981
0.000292271
0.00029156
0.00029085
0.00029014
0.00028943
0.000288719
0.000288009
0.000287299
0.000286589
0.000285878
0.000285168
0.000284458
0.000283748
0.000283037
0.000282327
0.000281617
0.000280907
0.000280196
0.000279486
0.000278776
0.000278066
0.000277355
0.000276645
0.000275935
0.000275225
0.000274514
0.000273804
0.000273094
0.000272384
0.000271673
0.000270963
0.000270253
0.000269543
0.000268832
0.000268122
0.000267412
0.000266702
0.000265991
0.000265281
0.000264571
0.000263861
0.00026315
0.00026244
0.00026173
0.00026102
0.000260309
0.000259599
0.000258889
0.000258179
0.000257468
0.000256758
0.000256048
0.000255338
0.000254627
0.000253917
0.000253207
0.000252497
0.000251786
0.000251076
0.000250366
0.000249656
0.000248945
0.000248235
0.000247525
0.000246815
0.000246104
0.000245394
0.000244684
0.000243974
0.000243263
0.000242553
0.000241843
0.000241133
0.000240422
0.000239712
0.000239002
0.000238292
0.000237581
0.000236871
0.000236161
0.000235451
0.00023474
0.00023403
0.00023332
0.00023261
0.000231899
0.000231189
0.000230479
0.000229769
0.000229058
0.000228348
0.000227638
0.000226928
0.000226217
0.000225507
0.000224797
0.000224087
0.000223376
0.000222666
0.000221956
0.000221246
0.000220535
0.000219825
0.000219115
0.000218405
0.000217694
0.000216984
0.000216274
0.000215564
0.000214853
0.000214143
0.000213433
0.000212723
0.000212012
0.000211302
0.000210592
0.000209882
0.000209171
0.000208461
0.000207751
0.000207041
0.000206331
0.00020562
0.00020491
0.0002042
0.00020349
0.000202779
0.000202069
0.000201359
0.000200649
0.000199938
0.000199228
0.000198518
0.000197808
0.000197097
0.000196387
0.000195677
0.000194967
0.000194256
0.000193546
0.000192836
0.000192126
0.000191415
0.000190705
0.000189995
0.000189285
0.000188574
0.000187864
0.000187154
0.000186444
0.000185733
0.000185023
0.000184313
0.000183603
0.000182892
0.000182182
0.000181472
0.000180762
0.000180051
0.000179341
0.000178631
0.000177921
0.00017721
0.0001765
0.00017579
0.00017508
0.000174369
0.000173659
0.000172949
0.000172239
0.000171528
0.000170818
0.000170108
0.000169398
0.000168687
0.000167977
0.000167267
0.000166557
0.000165846
0.000165136
0.000164426
0.000163716
0.000163005
0.000162295
0.000161585
0.000160875
0.000160164
0.000159454
0.000158744
0.000158034
0.000157323
0.000156613
0.000155903
0.000155193
0.000154482
0.000153772
0.000153062
0.000152352
0.000151641
0.000150931
0.000150221
0.000149511
0.0001488
0.00014809
0.00014738
0.00014667
0.000145959
0.000145249
0.000144539
0.000143829
0.000143118
0.000142408
0.000141698
0.000140988
0.000140277
0.000139567
0.000138857
0.000138147
0.000137437
0.000136726
0.000136016
0.000135306
0.000134596
0.000133885
0.000133175
0.000132465
0.000131755
0.000131044
0.000130334
0.000129624
0.000128914
0.000128203
0.000127493
0.000126783
0.000126073
0.000125362
0.000124652
0.000123942
0.000123232
0.000122521
0.000121811
0.000121101
0.000120391
0.00011968
0.00011897
0.00011826
0.00011755
0.000116839
0.000116129
0.000115419
0.000114709
0.000113998
0.000113288
0.000112578
0.000111868
0.000111157
0.000110447
0.000109737
0.000109027
0.000108316
0.000107606
0.000106896
0.000106186
0.000105475
0.000104765
0.000104055
0.000103345
0.000102634
0.000101924
0.000101214
0.000100504
9.97935e-05
9.90832e-05
9.8373e-05
9.76627e-05
9.69525e-05
9.62423e-05
9.5532e-05
9.48218e-05
9.41115e-05
9.34013e-05
9.2691e-05
9.19808e-05
9.12705e-05
9.05603e-05
8.98501e-05
8.91398e-05
8.84296e-05
8.77193e-05
8.70091e-05
8.62988e-05
8.55886e-05
8.48784e-05
8.41681e-05
8.34579e-05
8.27476e-05
8.20374e-05
8.13271e-05
8.06169e-05
7.99067e-05
7.91964e-05
7.84862e-05
7.77759e-05
7.70657e-05
7.63554e-05
7.56452e-05
7.4935e-05
7.42247e-05
7.35145e-05
7.28042e-05
7.2094e-05
7.13838e-05
7.06735e-05
6.99633e-05
6.9253e-05
6.85428e-05
6.78326e-05
6.71223e-05
6.64121e-05
6.57018e-05
6.49916e-05
6.42814e-05
6.35711e-05
6.28609e-05
6.21507e-05
6.14404e-05
6.07302e-05
6.00199e-05
5.93097e-05
5.85995e-05
5.78892e-05
5.7179e-05
5.64688e-05
5.57585e-05
5.50483e-05
5.43381e-05
5.36278e-05
5.29176e-05
5.22074e-05
5.14971e-05
5.07869e-05
5.00767e-05
4.93664e-05
4.86562e-05
4.7946e-05
4.72357e-05
4.65255e-05
4.58153e-05
4.51051e-05
4.43948e-05
4.36846e-05
4.29744e-05
4.22641e-05
4.15539e-05
4.08437e-05
4.01335e-05
3.94232e-05
3.8713e-05
3.80028e-05
3.72926e-05
3.65823e-05
3.58721e-05
3.51619e-05
3.44516e-05
3.37414e-05
3.30312e-05
3.23209e-05
3.16107e-05
3.09004e-05
3.01902e-05
2.94799e-05
2.87696e-05
2.80594e-05
2.73491e-05
2.66389e-05
2.59286e-05
2.52185e-05
2.45083e-05
2.37983e-05
2.30884e-05
2.23786e-05
2.16691e-05
2.096e-05
2.02513e-05
1.95432e-05
1.88359e-05
1.81297e-05
1.74249e-05
1.67219e-05
1.60212e-05
1.53235e-05
1.46294e-05
1.39401e-05
1.32567e-05
1.25806e-05
1.19135e-05
1.12576e-05
1.06154e-05
9.98959e-06
9.38376e-06
8.80177e-06
8.24812e-06
7.72782e-06
7.24635e-06
6.80945e-06
6.42265e-06
6.09033e-06
5.81377e-06
5.58804e-06
5.4009e-06
5.23918e-06
6.25075e-06
0.000437252
0.000442695
0.000432004
0.000423739
0.000419816
0.000418652
0.000418934
0.000419882
0.000421062
0.000422244
0.000423308
0.0004242
0.0004249
0.000425408
0.000425736
0.000425902
0.000425924
0.00042582
0.00042561
0.00042531
0.000424934
0.000424496
0.000424006
0.000423475
0.000422909
0.000422317
0.000421702
0.000421071
0.000420426
0.00041977
0.000419106
0.000418436
0.000417761
0.000417082
0.000416401
0.000415718
0.000415033
0.000414347
0.00041366
0.000412973
0.000412285
0.000411597
0.000410909
0.000410221
0.000409533
0.000408845
0.000408157
0.000407469
0.000406781
0.000406093
0.000405405
0.000404717
0.000404029
0.000403342
0.000402654
0.000401966
0.000401278
0.00040059
0.000399903
0.000399215
0.000398527
0.000397839
0.000397152
0.000396464
0.000395776
0.000395089
0.000394401
0.000393713
0.000393026
0.000392338
0.00039165
0.000390962
0.000390275
0.000389587
0.000388899
0.000388212
0.000387524
0.000386836
0.000386149
0.000385461
0.000384773
0.000384085
0.000383398
0.00038271
0.000382022
0.000381335
0.000380647
0.000379959
0.000379272
0.000378584
0.000377896
0.000377208
0.000376521
0.000375833
0.000375145
0.000374458
0.00037377
0.000373082
0.000372395
0.000371707
0.000371019
0.000370331
0.000369644
0.000368956
0.000368268
0.000367581
0.000366893
0.000366205
0.000365518
0.00036483
0.000364142
0.000363454
0.000362767
0.000362079
0.000361391
0.000360704
0.000360016
0.000359328
0.000358641
0.000357953
0.000357265
0.000356577
0.00035589
0.000355202
0.000354514
0.000353827
0.000353139
0.000352451
0.000351764
0.000351076
0.000350388
0.0003497
0.000349013
0.000348325
0.000347637
0.00034695
0.000346262
0.000345574
0.000344887
0.000344199
0.000343511
0.000342823
0.000342136
0.000341448
0.00034076
0.000340073
0.000339385
0.000338697
0.00033801
0.000337322
0.000336634
0.000335947
0.000335259
0.000334571
0.000333883
0.000333196
0.000332508
0.00033182
0.000331133
0.000330445
0.000329757
0.00032907
0.000328382
0.000327694
0.000327006
0.000326319
0.000325631
0.000324943
0.000324256
0.000323568
0.00032288
0.000322193
0.000321505
0.000320817
0.000320129
0.000319442
0.000318754
0.000318066
0.000317379
0.000316691
0.000316003
0.000315316
0.000314628
0.00031394
0.000313252
0.000312565
0.000311877
0.000311189
0.000310502
0.000309814
0.000309126
0.000308439
0.000307751
0.000307063
0.000306376
0.000305688
0.000305
0.000304312
0.000303625
0.000302937
0.000302249
0.000301562
0.000300874
0.000300186
0.000299499
0.000298811
0.000298123
0.000297435
0.000296748
0.00029606
0.000295372
0.000294685
0.000293997
0.000293309
0.000292622
0.000291934
0.000291246
0.000290558
0.000289871
0.000289183
0.000288495
0.000287808
0.00028712
0.000286432
0.000285745
0.000285057
0.000284369
0.000283682
0.000282994
0.000282306
0.000281618
0.000280931
0.000280243
0.000279555
0.000278868
0.00027818
0.000277492
0.000276805
0.000276117
0.000275429
0.000274741
0.000274054
0.000273366
0.000272678
0.000271991
0.000271303
0.000270615
0.000269928
0.00026924
0.000268552
0.000267864
0.000267177
0.000266489
0.000265801
0.000265114
0.000264426
0.000263738
0.000263051
0.000262363
0.000261675
0.000260988
0.0002603
0.000259612
0.000258924
0.000258237
0.000257549
0.000256861
0.000256174
0.000255486
0.000254798
0.000254111
0.000253423
0.000252735
0.000252047
0.00025136
0.000250672
0.000249984
0.000249297
0.000248609
0.000247921
0.000247234
0.000246546
0.000245858
0.000245171
0.000244483
0.000243795
0.000243107
0.00024242
0.000241732
0.000241044
0.000240357
0.000239669
0.000238981
0.000238294
0.000237606
0.000236918
0.00023623
0.000235543
0.000234855
0.000234167
0.00023348
0.000232792
0.000232104
0.000231417
0.000230729
0.000230041
0.000229354
0.000228666
0.000227978
0.00022729
0.000226603
0.000225915
0.000225227
0.00022454
0.000223852
0.000223164
0.000222477
0.000221789
0.000221101
0.000220414
0.000219726
0.000219038
0.00021835
0.000217663
0.000216975
0.000216287
0.0002156
0.000214912
0.000214224
0.000213537
0.000212849
0.000212161
0.000211473
0.000210786
0.000210098
0.00020941
0.000208723
0.000208035
0.000207347
0.00020666
0.000205972
0.000205284
0.000204597
0.000203909
0.000203221
0.000202533
0.000201846
0.000201158
0.00020047
0.000199783
0.000199095
0.000198407
0.00019772
0.000197032
0.000196344
0.000195657
0.000194969
0.000194281
0.000193593
0.000192906
0.000192218
0.00019153
0.000190843
0.000190155
0.000189467
0.00018878
0.000188092
0.000187404
0.000186717
0.000186029
0.000185341
0.000184654
0.000183966
0.000183278
0.00018259
0.000181903
0.000181215
0.000180527
0.00017984
0.000179152
0.000178464
0.000177777
0.000177089
0.000176401
0.000175714
0.000175026
0.000174338
0.00017365
0.000172963
0.000172275
0.000171587
0.0001709
0.000170212
0.000169524
0.000168837
0.000168149
0.000167461
0.000166774
0.000166086
0.000165398
0.000164711
0.000164023
0.000163335
0.000162647
0.00016196
0.000161272
0.000160584
0.000159897
0.000159209
0.000158521
0.000157834
0.000157146
0.000156458
0.000155771
0.000155083
0.000154395
0.000153708
0.00015302
0.000152332
0.000151644
0.000150957
0.000150269
0.000149581
0.000148894
0.000148206
0.000147518
0.000146831
0.000146143
0.000145455
0.000144768
0.00014408
0.000143392
0.000142705
0.000142017
0.000141329
0.000140642
0.000139954
0.000139266
0.000138578
0.000137891
0.000137203
0.000136515
0.000135828
0.00013514
0.000134452
0.000133765
0.000133077
0.000132389
0.000131702
0.000131014
0.000130326
0.000129639
0.000128951
0.000128263
0.000127576
0.000126888
0.0001262
0.000125513
0.000124825
0.000124137
0.00012345
0.000122762
0.000122074
0.000121386
0.000120699
0.000120011
0.000119323
0.000118636
0.000117948
0.00011726
0.000116573
0.000115885
0.000115197
0.00011451
0.000113822
0.000113134
0.000112447
0.000111759
0.000111071
0.000110384
0.000109696
0.000109008
0.000108321
0.000107633
0.000106945
0.000106258
0.00010557
0.000104882
0.000104195
0.000103507
0.000102819
0.000102132
0.000101444
0.000100756
0.000100069
9.9381e-05
9.86933e-05
9.80057e-05
9.7318e-05
9.66304e-05
9.59427e-05
9.5255e-05
9.45674e-05
9.38797e-05
9.31921e-05
9.25044e-05
9.18167e-05
9.11291e-05
9.04414e-05
8.97538e-05
8.90661e-05
8.83785e-05
8.76908e-05
8.70032e-05
8.63155e-05
8.56278e-05
8.49402e-05
8.42525e-05
8.35649e-05
8.28773e-05
8.21896e-05
8.1502e-05
8.08143e-05
8.01267e-05
7.9439e-05
7.87514e-05
7.80637e-05
7.73761e-05
7.66885e-05
7.60008e-05
7.53132e-05
7.46255e-05
7.39379e-05
7.32503e-05
7.25626e-05
7.1875e-05
7.11874e-05
7.04998e-05
6.98121e-05
6.91245e-05
6.84369e-05
6.77493e-05
6.70616e-05
6.6374e-05
6.56864e-05
6.49988e-05
6.43112e-05
6.36236e-05
6.2936e-05
6.22483e-05
6.15607e-05
6.08731e-05
6.01855e-05
5.94979e-05
5.88103e-05
5.81228e-05
5.74352e-05
5.67476e-05
5.606e-05
5.53724e-05
5.46848e-05
5.39972e-05
5.33097e-05
5.26221e-05
5.19345e-05
5.1247e-05
5.05594e-05
4.98719e-05
4.91843e-05
4.84968e-05
4.78092e-05
4.71217e-05
4.64341e-05
4.57466e-05
4.50591e-05
4.43716e-05
4.36841e-05
4.29966e-05
4.23091e-05
4.16216e-05
4.09341e-05
4.02466e-05
3.95591e-05
3.88717e-05
3.81842e-05
3.74968e-05
3.68093e-05
3.61219e-05
3.54345e-05
3.4747e-05
3.40596e-05
3.33722e-05
3.26848e-05
3.19975e-05
3.13101e-05
3.06228e-05
2.99354e-05
2.92481e-05
2.85608e-05
2.78735e-05
2.71862e-05
2.6499e-05
2.58118e-05
2.51247e-05
2.44376e-05
2.37507e-05
2.30638e-05
2.23771e-05
2.16907e-05
2.10045e-05
2.03187e-05
1.96334e-05
1.89488e-05
1.82649e-05
1.75821e-05
1.69007e-05
1.6221e-05
1.55434e-05
1.48686e-05
1.41972e-05
1.353e-05
1.2868e-05
1.22123e-05
1.15645e-05
1.09261e-05
1.02989e-05
9.68515e-06
9.08718e-06
8.50758e-06
7.94901e-06
7.41405e-06
6.90479e-06
6.42203e-06
5.96387e-06
5.52272e-06
5.07999e-06
4.60142e-06
4.07895e-06
4.0773e-06
7.82908e-06
0.000378153
0.000415546
0.000419649
0.000415997
0.000412521
0.000410528
0.000409737
0.00040969
0.000410033
0.00041054
0.000411069
0.000411543
0.000411918
0.000412178
0.000412317
0.000412341
0.000412257
0.000412078
0.000411815
0.00041148
0.000411083
0.000410635
0.000410143
0.000409616
0.00040906
0.00040848
0.000407882
0.000407268
0.000406642
0.000406007
0.000405364
0.000404716
0.000404063
0.000403407
0.000402748
0.000402087
0.000401425
0.000400762
0.000400098
0.000399433
0.000398769
0.000398104
0.000397438
0.000396773
0.000396108
0.000395442
0.000394777
0.000394111
0.000393446
0.000392781
0.000392115
0.00039145
0.000390785
0.00039012
0.000389454
0.000388789
0.000388124
0.000387459
0.000386793
0.000386128
0.000385463
0.000384798
0.000384133
0.000383468
0.000382802
0.000382137
0.000381472
0.000380807
0.000380142
0.000379477
0.000378812
0.000378146
0.000377481
0.000376816
0.000376151
0.000375486
0.000374821
0.000374156
0.00037349
0.000372825
0.00037216
0.000371495
0.00037083
0.000370165
0.0003695
0.000368834
0.000368169
0.000367504
0.000366839
0.000366174
0.000365509
0.000364843
0.000364178
0.000363513
0.000362848
0.000362183
0.000361518
0.000360853
0.000360187
0.000359522
0.000358857
0.000358192
0.000357527
0.000356862
0.000356197
0.000355531
0.000354866
0.000354201
0.000353536
0.000352871
0.000352206
0.000351541
0.000350875
0.00035021
0.000349545
0.00034888
0.000348215
0.00034755
0.000346885
0.000346219
0.000345554
0.000344889
0.000344224
0.000343559
0.000342894
0.000342229
0.000341563
0.000340898
0.000340233
0.000339568
0.000338903
0.000338238
0.000337573
0.000336907
0.000336242
0.000335577
0.000334912
0.000334247
0.000333582
0.000332916
0.000332251
0.000331586
0.000330921
0.000330256
0.000329591
0.000328926
0.00032826
0.000327595
0.00032693
0.000326265
0.0003256
0.000324935
0.00032427
0.000323604
0.000322939
0.000322274
0.000321609
0.000320944
0.000320279
0.000319614
0.000318948
0.000318283
0.000317618
0.000316953
0.000316288
0.000315623
0.000314958
0.000314292
0.000313627
0.000312962
0.000312297
0.000311632
0.000310967
0.000310302
0.000309636
0.000308971
0.000308306
0.000307641
0.000306976
0.000306311
0.000305646
0.00030498
0.000304315
0.00030365
0.000302985
0.00030232
0.000301655
0.00030099
0.000300324
0.000299659
0.000298994
0.000298329
0.000297664
0.000296999
0.000296334
0.000295668
0.000295003
0.000294338
0.000293673
0.000293008
0.000292343
0.000291678
0.000291012
0.000290347
0.000289682
0.000289017
0.000288352
0.000287687
0.000287022
0.000286356
0.000285691
0.000285026
0.000284361
0.000283696
0.000283031
0.000282366
0.0002817
0.000281035
0.00028037
0.000279705
0.00027904
0.000278375
0.00027771
0.000277044
0.000276379
0.000275714
0.000275049
0.000274384
0.000273719
0.000273054
0.000272388
0.000271723
0.000271058
0.000270393
0.000269728
0.000269063
0.000268398
0.000267732
0.000267067
0.000266402
0.000265737
0.000265072
0.000264407
0.000263742
0.000263076
0.000262411
0.000261746
0.000261081
0.000260416
0.000259751
0.000259086
0.000258421
0.000257755
0.00025709
0.000256425
0.00025576
0.000255095
0.00025443
0.000253765
0.000253099
0.000252434
0.000251769
0.000251104
0.000250439
0.000249774
0.000249109
0.000248443
0.000247778
0.000247113
0.000246448
0.000245783
0.000245118
0.000244453
0.000243787
0.000243122
0.000242457
0.000241792
0.000241127
0.000240462
0.000239797
0.000239131
0.000238466
0.000237801
0.000237136
0.000236471
0.000235806
0.000235141
0.000234476
0.00023381
0.000233145
0.00023248
0.000231815
0.00023115
0.000230485
0.00022982
0.000229154
0.000228489
0.000227824
0.000227159
0.000226494
0.000225829
0.000225164
0.000224498
0.000223833
0.000223168
0.000222503
0.000221838
0.000221173
0.000220508
0.000219843
0.000219177
0.000218512
0.000217847
0.000217182
0.000216517
0.000215852
0.000215187
0.000214521
0.000213856
0.000213191
0.000212526
0.000211861
0.000211196
0.000210531
0.000209866
0.0002092
0.000208535
0.00020787
0.000207205
0.00020654
0.000205875
0.00020521
0.000204545
0.000203879
0.000203214
0.000202549
0.000201884
0.000201219
0.000200554
0.000199889
0.000199223
0.000198558
0.000197893
0.000197228
0.000196563
0.000195898
0.000195233
0.000194568
0.000193902
0.000193237
0.000192572
0.000191907
0.000191242
0.000190577
0.000189912
0.000189247
0.000188581
0.000187916
0.000187251
0.000186586
0.000185921
0.000185256
0.000184591
0.000183926
0.00018326
0.000182595
0.00018193
0.000181265
0.0001806
0.000179935
0.00017927
0.000178605
0.000177939
0.000177274
0.000176609
0.000175944
0.000175279
0.000174614
0.000173949
0.000173284
0.000172618
0.000171953
0.000171288
0.000170623
0.000169958
0.000169293
0.000168628
0.000167963
0.000167297
0.000166632
0.000165967
0.000165302
0.000164637
0.000163972
0.000163307
0.000162642
0.000161976
0.000161311
0.000160646
0.000159981
0.000159316
0.000158651
0.000157986
0.000157321
0.000156656
0.00015599
0.000155325
0.00015466
0.000153995
0.00015333
0.000152665
0.000152
0.000151335
0.00015067
0.000150004
0.000149339
0.000148674
0.000148009
0.000147344
0.000146679
0.000146014
0.000145349
0.000144684
0.000144018
0.000143353
0.000142688
0.000142023
0.000141358
0.000140693
0.000140028
0.000139363
0.000138698
0.000138032
0.000137367
0.000136702
0.000136037
0.000135372
0.000134707
0.000134042
0.000133377
0.000132712
0.000132047
0.000131381
0.000130716
0.000130051
0.000129386
0.000128721
0.000128056
0.000127391
0.000126726
0.000126061
0.000125396
0.000124731
0.000124065
0.0001234
0.000122735
0.00012207
0.000121405
0.00012074
0.000120075
0.00011941
0.000118745
0.00011808
0.000117415
0.000116749
0.000116084
0.000115419
0.000114754
0.000114089
0.000113424
0.000112759
0.000112094
0.000111429
0.000110764
0.000110099
0.000109434
0.000108769
0.000108103
0.000107438
0.000106773
0.000106108
0.000105443
0.000104778
0.000104113
0.000103448
0.000102783
0.000102118
0.000101453
0.000100788
0.000100123
9.94576e-05
9.87925e-05
9.81275e-05
9.74624e-05
9.67974e-05
9.61323e-05
9.54673e-05
9.48022e-05
9.41372e-05
9.34721e-05
9.28071e-05
9.21421e-05
9.1477e-05
9.0812e-05
9.01469e-05
8.94819e-05
8.88169e-05
8.81518e-05
8.74868e-05
8.68218e-05
8.61568e-05
8.54917e-05
8.48267e-05
8.41617e-05
8.34967e-05
8.28317e-05
8.21666e-05
8.15016e-05
8.08366e-05
8.01716e-05
7.95066e-05
7.88416e-05
7.81766e-05
7.75116e-05
7.68466e-05
7.61816e-05
7.55166e-05
7.48517e-05
7.41867e-05
7.35217e-05
7.28567e-05
7.21917e-05
7.15268e-05
7.08618e-05
7.01968e-05
6.95319e-05
6.88669e-05
6.8202e-05
6.7537e-05
6.68721e-05
6.62072e-05
6.55422e-05
6.48773e-05
6.42124e-05
6.35474e-05
6.28825e-05
6.22176e-05
6.15527e-05
6.08878e-05
6.02229e-05
5.9558e-05
5.88932e-05
5.82283e-05
5.75634e-05
5.68985e-05
5.62337e-05
5.55688e-05
5.4904e-05
5.42392e-05
5.35743e-05
5.29095e-05
5.22447e-05
5.15799e-05
5.09151e-05
5.02503e-05
4.95856e-05
4.89208e-05
4.82561e-05
4.75913e-05
4.69266e-05
4.62619e-05
4.55972e-05
4.49325e-05
4.42678e-05
4.36032e-05
4.29385e-05
4.22739e-05
4.16093e-05
4.09447e-05
4.02801e-05
3.96156e-05
3.8951e-05
3.82865e-05
3.7622e-05
3.69575e-05
3.62931e-05
3.56287e-05
3.49643e-05
3.42999e-05
3.36356e-05
3.29713e-05
3.2307e-05
3.16427e-05
3.09785e-05
3.03144e-05
2.96503e-05
2.89862e-05
2.83222e-05
2.76582e-05
2.69943e-05
2.63305e-05
2.56667e-05
2.5003e-05
2.43395e-05
2.36761e-05
2.30128e-05
2.23497e-05
2.16868e-05
2.10242e-05
2.0362e-05
1.97002e-05
1.9039e-05
1.83784e-05
1.77187e-05
1.706e-05
1.64026e-05
1.57468e-05
1.5093e-05
1.44417e-05
1.37933e-05
1.31486e-05
1.25082e-05
1.18732e-05
1.12443e-05
1.06229e-05
1.00102e-05
9.40747e-06
8.81609e-06
8.23739e-06
7.67243e-06
7.12178e-06
6.58494e-06
6.0596e-06
5.54028e-06
5.01684e-06
4.47662e-06
3.93397e-06
3.61513e-06
4.55488e-06
8.04063e-06
0.000336369
0.000384137
0.000400236
0.000403121
0.000402145
0.000400675
0.000399608
0.000399023
0.000398791
0.000398769
0.000398846
0.000398944
0.000399016
0.000399033
0.000398982
0.000398858
0.000398663
0.0003984
0.000398076
0.000397697
0.000397272
0.000396807
0.000396308
0.00039578
0.000395229
0.000394659
0.000394073
0.000393475
0.000392867
0.00039225
0.000391628
0.000391
0.000390369
0.000389734
0.000389098
0.000388459
0.000387819
0.000387179
0.000386538
0.000385896
0.000385254
0.000384611
0.000383969
0.000383326
0.000382683
0.000382041
0.000381398
0.000380755
0.000380112
0.00037947
0.000378827
0.000378184
0.000377541
0.000376899
0.000376256
0.000375613
0.000374971
0.000374328
0.000373686
0.000373043
0.0003724
0.000371758
0.000371115
0.000370472
0.00036983
0.000369187
0.000368545
0.000367902
0.000367259
0.000366617
0.000365974
0.000365332
0.000364689
0.000364046
0.000363404
0.000362761
0.000362119
0.000361476
0.000360834
0.000360191
0.000359548
0.000358906
0.000358263
0.000357621
0.000356978
0.000356335
0.000355693
0.00035505
0.000354408
0.000353765
0.000353122
0.00035248
0.000351837
0.000351195
0.000350552
0.000349909
0.000349267
0.000348624
0.000347982
0.000347339
0.000346697
0.000346054
0.000345411
0.000344769
0.000344126
0.000343484
0.000342841
0.000342198
0.000341556
0.000340913
0.000340271
0.000339628
0.000338985
0.000338343
0.0003377
0.000337058
0.000336415
0.000335772
0.00033513
0.000334487
0.000333845
0.000333202
0.000332559
0.000331917
0.000331274
0.000330632
0.000329989
0.000329347
0.000328704
0.000328061
0.000327419
0.000326776
0.000326134
0.000325491
0.000324848
0.000324206
0.000323563
0.000322921
0.000322278
0.000321635
0.000320993
0.00032035
0.000319708
0.000319065
0.000318423
0.00031778
0.000317137
0.000316495
0.000315852
0.00031521
0.000314567
0.000313924
0.000313282
0.000312639
0.000311997
0.000311354
0.000310711
0.000310069
0.000309426
0.000308784
0.000308141
0.000307499
0.000306856
0.000306213
0.000305571
0.000304928
0.000304286
0.000303643
0.000303
0.000302358
0.000301715
0.000301073
0.00030043
0.000299787
0.000299145
0.000298502
0.00029786
0.000297217
0.000296575
0.000295932
0.000295289
0.000294647
0.000294004
0.000293362
0.000292719
0.000292076
0.000291434
0.000290791
0.000290149
0.000289506
0.000288864
0.000288221
0.000287578
0.000286936
0.000286293
0.000285651
0.000285008
0.000284365
0.000283723
0.00028308
0.000282438
0.000281795
0.000281152
0.00028051
0.000279867
0.000279225
0.000278582
0.00027794
0.000277297
0.000276654
0.000276012
0.000275369
0.000274727
0.000274084
0.000273441
0.000272799
0.000272156
0.000271514
0.000270871
0.000270229
0.000269586
0.000268943
0.000268301
0.000267658
0.000267016
0.000266373
0.000265731
0.000265088
0.000264445
0.000263803
0.00026316
0.000262518
0.000261875
0.000261232
0.00026059
0.000259947
0.000259305
0.000258662
0.00025802
0.000257377
0.000256734
0.000256092
0.000255449
0.000254807
0.000254164
0.000253521
0.000252879
0.000252236
0.000251594
0.000250951
0.000250309
0.000249666
0.000249023
0.000248381
0.000247738
0.000247096
0.000246453
0.000245811
0.000245168
0.000244525
0.000243883
0.00024324
0.000242598
0.000241955
0.000241312
0.00024067
0.000240027
0.000239385
0.000238742
0.0002381
0.000237457
0.000236814
0.000236172
0.000235529
0.000234887
0.000234244
0.000233602
0.000232959
0.000232316
0.000231674
0.000231031
0.000230389
0.000229746
0.000229104
0.000228461
0.000227818
0.000227176
0.000226533
0.000225891
0.000225248
0.000224606
0.000223963
0.00022332
0.000222678
0.000222035
0.000221393
0.00022075
0.000220108
0.000219465
0.000218822
0.00021818
0.000217537
0.000216895
0.000216252
0.00021561
0.000214967
0.000214324
0.000213682
0.000213039
0.000212397
0.000211754
0.000211112
0.000210469
0.000209826
0.000209184
0.000208541
0.000207899
0.000207256
0.000206614
0.000205971
0.000205329
0.000204686
0.000204043
0.000203401
0.000202758
0.000202116
0.000201473
0.000200831
0.000200188
0.000199545
0.000198903
0.00019826
0.000197618
0.000196975
0.000196333
0.00019569
0.000195048
0.000194405
0.000193762
0.00019312
0.000192477
0.000191835
0.000191192
0.00019055
0.000189907
0.000189264
0.000188622
0.000187979
0.000187337
0.000186694
0.000186052
0.000185409
0.000184767
0.000184124
0.000183481
0.000182839
0.000182196
0.000181554
0.000180911
0.000180269
0.000179626
0.000178984
0.000178341
0.000177699
0.000177056
0.000176413
0.000175771
0.000175128
0.000174486
0.000173843
0.000173201
0.000172558
0.000171916
0.000171273
0.00017063
0.000169988
0.000169345
0.000168703
0.00016806
0.000167418
0.000166775
0.000166133
0.00016549
0.000164848
0.000164205
0.000163562
0.00016292
0.000162277
0.000161635
0.000160992
0.00016035
0.000159707
0.000159065
0.000158422
0.00015778
0.000157137
0.000156495
0.000155852
0.00015521
0.000154567
0.000153924
0.000153282
0.000152639
0.000151997
0.000151354
0.000150712
0.000150069
0.000149427
0.000148784
0.000148142
0.000147499
0.000146857
0.000146214
0.000145572
0.000144929
0.000144287
0.000143644
0.000143001
0.000142359
0.000141716
0.000141074
0.000140431
0.000139789
0.000139146
0.000138504
0.000137861
0.000137219
0.000136576
0.000135934
0.000135291
0.000134649
0.000134006
0.000133364
0.000132721
0.000132079
0.000131436
0.000130794
0.000130151
0.000129509
0.000128866
0.000128224
0.000127581
0.000126939
0.000126296
0.000125654
0.000125011
0.000124369
0.000123726
0.000123084
0.000122441
0.000121799
0.000121156
0.000120514
0.000119871
0.000119229
0.000118586
0.000117944
0.000117301
0.000116659
0.000116016
0.000115374
0.000114731
0.000114089
0.000113447
0.000112804
0.000112162
0.000111519
0.000110877
0.000110234
0.000109592
0.000108949
0.000108307
0.000107664
0.000107022
0.000106379
0.000105737
0.000105095
0.000104452
0.00010381
0.000103167
0.000102525
0.000101882
0.00010124
0.000100597
9.9955e-05
9.93126e-05
9.86702e-05
9.80278e-05
9.73853e-05
9.67429e-05
9.61005e-05
9.54581e-05
9.48157e-05
9.41733e-05
9.35308e-05
9.28884e-05
9.2246e-05
9.16036e-05
9.09612e-05
9.03188e-05
8.96765e-05
8.90341e-05
8.83917e-05
8.77493e-05
8.71069e-05
8.64646e-05
8.58222e-05
8.51798e-05
8.45375e-05
8.38951e-05
8.32527e-05
8.26104e-05
8.1968e-05
8.13257e-05
8.06833e-05
8.0041e-05
7.93987e-05
7.87564e-05
7.8114e-05
7.74717e-05
7.68294e-05
7.61871e-05
7.55448e-05
7.49025e-05
7.42602e-05
7.36179e-05
7.29756e-05
7.23334e-05
7.16911e-05
7.10488e-05
7.04066e-05