/*--------------------------------*- C++ -*----------------------------------*\
| =========                 |                                                 |
| \\      /  F ield         | foam-extend: Open Source CFD                    |
|  \\    /   O peration     | Version:     4.0                                |
|   \\  /    A nd           | Web:         http://www.foam-extend.org         |
|    \\/     M anipulation  |                                                 |
\*---------------------------------------------------------------------------*/
FoamFile
{
    version     2.0;
    format      ascii;
    class       volSymmTensorField;
    location    "1";
    object      epsilon;
}
// * * * * * * * * * * * * * * * * * * * * * * * * * * * * * * * * * * * * * //

dimensions      [0 0 0 0 0 0 0];

internalField   nonuniform List<symmTensor> 
40960
(
(-0.000590247 -0.000103525 1.03398e-22 0.000177537 0 0)
(-0.000527926 -1.59766e-05 -2.48154e-22 0.000222695 0 0)
(-0.000508931 -3.26566e-06 -1.65436e-22 0.000218073 0 0)
(-0.000501872 2.28493e-07 3.30872e-22 0.000215409 8.27181e-23 0)
(-0.000500824 1.28207e-06 1.65436e-22 0.000214832 -2.48154e-22 0)
(-0.000502404 1.54923e-06 1.65436e-22 0.00021541 -1.65436e-22 0)
(-0.000504979 1.5145e-06 1.65436e-22 0.000216459 -1.65436e-22 0)
(-0.000507768 1.3607e-06 3.30872e-22 0.000217625 -1.65436e-22 0)
(-0.000510405 1.16585e-06 6.61744e-22 0.000218741 1.65436e-22 0)
(-0.000512727 9.65398e-07 6.61744e-22 0.000219729 0 0)
(-0.000514677 7.7565e-07 3.30872e-22 0.000220562 3.30872e-22 0)
(-0.000516247 6.03671e-07 -6.61744e-22 0.000221234 0 0)
(-0.000517458 4.5188e-07 0 0.000221753 -3.30872e-22 0)
(-0.000518343 3.20318e-07 -3.30872e-22 0.000222134 0 0)
(-0.00051894 2.07827e-07 1.32349e-21 0.000222391 3.30872e-22 0)
(-0.000519287 1.12679e-07 3.30872e-21 0.000222541 9.92617e-22 0)
(-0.000519419 3.29362e-08 -1.32349e-21 0.000222599 -1.32349e-21 0)
(-0.00051937 -3.33563e-08 6.61744e-22 0.00022258 1.98523e-21 0)
(-0.00051917 -8.80609e-08 -6.61744e-22 0.000222495 3.30872e-22 0)
(-0.000518843 -1.32891e-07 -1.98523e-21 0.000222356 0 0)
(-0.000518412 -1.69387e-07 2.64698e-21 0.000222172 1.32349e-21 0)
(-0.000517897 -1.98907e-07 1.32349e-21 0.000221952 6.61744e-22 0)
(-0.000517312 -2.22633e-07 0 0.000221702 0 0)
(-0.000516672 -2.41582e-07 0 0.000221429 0 0)
(-0.000515987 -2.56619e-07 -1.32349e-21 0.000221136 -1.32349e-21 0)
(-0.000515267 -2.68474e-07 -6.61744e-22 0.000220827 -6.61744e-22 0)
(-0.000514519 -2.77759e-07 -6.61744e-22 0.000220507 -1.98523e-21 0)
(-0.000513748 -2.8498e-07 -2.64698e-21 0.000220177 0 0)
(-0.000512961 -2.90554e-07 -1.32349e-21 0.00021984 -1.98523e-21 0)
(-0.00051216 -2.94823e-07 2.64698e-21 0.000219497 7.94093e-21 0)
(-0.000511349 -2.98065e-07 -1.32349e-21 0.000219149 2.64698e-21 0)
(-0.00051053 -3.00504e-07 -2.64698e-21 0.000218798 -1.32349e-21 0)
(-0.000509705 -3.02321e-07 0 0.000218445 -2.64698e-21 0)
(-0.000508876 -3.03657e-07 -1.32349e-21 0.00021809 -6.61744e-21 0)
(-0.000508044 -3.04627e-07 -1.32349e-21 0.000217733 0 0)
(-0.000507209 -3.05319e-07 1.32349e-21 0.000217375 -3.97047e-21 0)
(-0.000506373 -3.05802e-07 -2.64698e-21 0.000217017 -2.64698e-21 0)
(-0.000505535 -3.06132e-07 -5.29396e-21 0.000216658 -5.29396e-21 0)
(-0.000504697 -3.06348e-07 -2.64698e-21 0.000216299 -6.61744e-21 0)
(-0.000503858 -3.06482e-07 -2.64698e-21 0.000215939 0 0)
(-0.000503019 -3.06559e-07 5.29396e-21 0.000215579 3.97047e-21 0)
(-0.000502179 -3.06595e-07 0 0.00021522 9.26442e-21 0)
(-0.000501339 -3.06605e-07 6.61744e-21 0.00021486 5.29396e-21 0)
(-0.0005005 -3.06597e-07 1.32349e-21 0.0002145 -5.29396e-21 0)
(-0.00049966 -3.06578e-07 -5.29396e-21 0.00021414 7.94093e-21 0)
(-0.00049882 -3.06554e-07 2.64698e-21 0.00021378 -2.64698e-21 0)
(-0.000497981 -3.06527e-07 2.64698e-21 0.00021342 7.94093e-21 0)
(-0.000497141 -3.065e-07 -1.32349e-21 0.000213061 -5.29396e-21 0)
(-0.000496302 -3.06474e-07 0 0.000212701 5.29396e-21 0)
(-0.000495462 -3.0645e-07 0 0.000212341 -5.29396e-21 0)
(-0.000494623 -3.06429e-07 -2.64698e-21 0.000211981 5.29396e-21 0)
(-0.000493784 -3.0641e-07 5.29396e-21 0.000211622 7.94093e-21 0)
(-0.000492944 -3.06394e-07 2.64698e-21 0.000211262 0 0)
(-0.000492105 -3.0638e-07 2.64698e-21 0.000210902 2.64698e-21 0)
(-0.000491266 -3.06368e-07 1.32349e-21 0.000210543 0 0)
(-0.000490427 -3.06358e-07 -6.61744e-21 0.000210183 -2.11758e-20 0)
(-0.000489588 -3.0635e-07 2.64698e-21 0.000209823 1.32349e-20 0)
(-0.000488749 -3.06344e-07 -2.64698e-21 0.000209464 0 0)
(-0.00048791 -3.06338e-07 1.19114e-20 0.000209104 2.64698e-21 0)
(-0.00048707 -3.06334e-07 5.29396e-21 0.000208744 0 0)
(-0.000486231 -3.06331e-07 -5.29396e-21 0.000208385 -1.58819e-20 0)
(-0.000485392 -3.06328e-07 5.29396e-21 0.000208025 2.11758e-20 0)
(-0.000484553 -3.06326e-07 -5.29396e-21 0.000207666 5.29396e-21 0)
(-0.000483714 -3.06324e-07 5.29396e-21 0.000207306 1.58819e-20 0)
(-0.000482875 -3.06323e-07 5.29396e-21 0.000206946 3.17637e-20 0)
(-0.000482036 -3.06322e-07 -1.85288e-20 0.000206587 -1.05879e-20 0)
(-0.000481197 -3.06321e-07 2.64698e-21 0.000206227 1.05879e-20 0)
(-0.000480358 -3.0632e-07 7.94093e-21 0.000205868 -1.05879e-20 0)
(-0.000479519 -3.0632e-07 7.94093e-21 0.000205508 -5.29396e-21 0)
(-0.00047868 -3.0632e-07 5.29396e-21 0.000205148 1.05879e-20 0)
(-0.000477841 -3.06319e-07 -7.94093e-21 0.000204789 -3.70577e-20 0)
(-0.000477002 -3.06319e-07 7.94093e-21 0.000204429 -5.29396e-21 0)
(-0.000476163 -3.06319e-07 -2.64698e-21 0.00020407 1.05879e-20 0)
(-0.000475324 -3.06319e-07 0 0.00020371 0 0)
(-0.000474485 -3.06319e-07 7.94093e-21 0.000203351 0 0)
(-0.000473646 -3.06319e-07 -2.64698e-21 0.000202991 -1.58819e-20 0)
(-0.000472806 -3.06319e-07 1.32349e-20 0.000202631 -2.11758e-20 0)
(-0.000471967 -3.06319e-07 0 0.000202272 0 0)
(-0.000471128 -3.06319e-07 1.32349e-20 0.000201912 -2.11758e-20 0)
(-0.000470289 -3.06319e-07 1.05879e-20 0.000201553 1.05879e-20 0)
(-0.00046945 -3.06319e-07 -2.64698e-21 0.000201193 5.29396e-21 0)
(-0.000468611 -3.06319e-07 0 0.000200833 -2.11758e-20 0)
(-0.000467772 -3.06319e-07 -2.64698e-21 0.000200474 5.29396e-21 0)
(-0.000466933 -3.06319e-07 1.05879e-20 0.000200114 3.17637e-20 0)
(-0.000466094 -3.06319e-07 0 0.000199755 -5.29396e-21 0)
(-0.000465255 -3.06319e-07 7.94093e-21 0.000199395 1.05879e-20 0)
(-0.000464416 -3.06319e-07 -5.29396e-21 0.000199035 2.11758e-20 0)
(-0.000463577 -3.06319e-07 7.94093e-21 0.000198676 2.11758e-20 0)
(-0.000462738 -3.06319e-07 1.58819e-20 0.000198316 5.29396e-20 0)
(-0.000461899 -3.06319e-07 -2.64698e-21 0.000197957 -1.05879e-20 0)
(-0.00046106 -3.06319e-07 -2.64698e-21 0.000197597 0 0)
(-0.000460221 -3.06319e-07 -2.64698e-21 0.000197237 -1.05879e-20 0)
(-0.000459382 -3.06319e-07 1.32349e-20 0.000196878 0 0)
(-0.000458543 -3.06319e-07 -5.29396e-21 0.000196518 4.23516e-20 0)
(-0.000457704 -3.06319e-07 -1.05879e-20 0.000196159 -1.05879e-20 0)
(-0.000456865 -3.06319e-07 -7.94093e-21 0.000195799 1.05879e-20 0)
(-0.000456026 -3.06319e-07 1.05879e-20 0.00019544 0 0)
(-0.000455186 -3.06319e-07 1.32349e-20 0.00019508 0 0)
(-0.000454347 -3.06319e-07 2.64698e-20 0.00019472 2.11758e-20 0)
(-0.000453508 -3.06319e-07 -2.64698e-21 0.000194361 1.05879e-20 0)
(-0.000452669 -3.06319e-07 1.05879e-20 0.000194001 -1.05879e-20 0)
(-0.00045183 -3.06319e-07 1.32349e-20 0.000193642 -1.05879e-20 0)
(-0.000450991 -3.06319e-07 -2.64698e-21 0.000193282 5.29396e-20 0)
(-0.000450152 -3.06319e-07 1.05879e-20 0.000192922 2.11758e-20 0)
(-0.000449313 -3.06319e-07 -7.94093e-21 0.000192563 1.05879e-20 0)
(-0.000448474 -3.06319e-07 -7.94093e-21 0.000192203 -1.05879e-20 0)
(-0.000447635 -3.06319e-07 2.64698e-21 0.000191844 2.11758e-20 0)
(-0.000446796 -3.06319e-07 2.64698e-21 0.000191484 -3.17637e-20 0)
(-0.000445957 -3.06319e-07 5.29396e-21 0.000191124 2.11758e-20 0)
(-0.000445118 -3.06319e-07 -7.94093e-21 0.000190765 -2.11758e-20 0)
(-0.000444279 -3.06319e-07 -5.29396e-21 0.000190405 -2.11758e-20 0)
(-0.00044344 -3.06319e-07 1.32349e-20 0.000190046 2.11758e-20 0)
(-0.000442601 -3.06319e-07 -2.64698e-21 0.000189686 0 0)
(-0.000441762 -3.06319e-07 -7.94093e-21 0.000189326 2.11758e-20 0)
(-0.000440923 -3.06319e-07 2.64698e-21 0.000188967 -4.23516e-20 0)
(-0.000440084 -3.06319e-07 -5.29396e-21 0.000188607 0 0)
(-0.000439245 -3.06319e-07 0 0.000188248 6.35275e-20 0)
(-0.000438406 -3.06319e-07 0 0.000187888 3.17637e-20 0)
(-0.000437567 -3.06319e-07 0 0.000187529 4.23516e-20 0)
(-0.000436727 -3.06319e-07 0 0.000187169 1.05879e-20 0)
(-0.000435888 -3.06319e-07 0 0.000186809 -2.11758e-20 0)
(-0.000435049 -3.06319e-07 7.94093e-21 0.00018645 4.23516e-20 0)
(-0.00043421 -3.06319e-07 -2.64698e-21 0.00018609 -1.05879e-20 0)
(-0.000433371 -3.06319e-07 -2.64698e-21 0.000185731 6.35275e-20 0)
(-0.000432532 -3.06319e-07 -7.94093e-21 0.000185371 2.11758e-20 0)
(-0.000431693 -3.06319e-07 -1.05879e-20 0.000185011 -4.23516e-20 0)
(-0.000430854 -3.06319e-07 1.05879e-20 0.000184652 2.11758e-20 0)
(-0.000430015 -3.06319e-07 -5.29396e-21 0.000184292 -2.11758e-20 0)
(-0.000429176 -3.06319e-07 1.58819e-20 0.000183933 6.35275e-20 0)
(-0.000428337 -3.06319e-07 -1.58819e-20 0.000183573 0 0)
(-0.000427498 -3.06319e-07 1.05879e-20 0.000183213 4.23516e-20 0)
(-0.000426659 -3.06319e-07 5.29396e-21 0.000182854 6.35275e-20 0)
(-0.00042582 -3.06319e-07 0 0.000182494 2.11758e-20 0)
(-0.000424981 -3.06319e-07 -1.05879e-20 0.000182135 6.35275e-20 0)
(-0.000424142 -3.06319e-07 0 0.000181775 2.11758e-20 0)
(-0.000423303 -3.06319e-07 5.29396e-21 0.000181415 -2.11758e-20 0)
(-0.000422464 -3.06319e-07 -5.29396e-21 0.000181056 8.47033e-20 0)
(-0.000421625 -3.06319e-07 5.29396e-21 0.000180696 0 0)
(-0.000420786 -3.06319e-07 1.58819e-20 0.000180337 1.27055e-19 0)
(-0.000419947 -3.06319e-07 -2.64698e-20 0.000179977 8.47033e-20 0)
(-0.000419107 -3.06319e-07 5.29396e-21 0.000179617 4.23516e-20 0)
(-0.000418268 -3.06319e-07 -1.58819e-20 0.000179258 2.11758e-20 0)
(-0.000417429 -3.06319e-07 5.29396e-21 0.000178898 4.23516e-20 0)
(-0.00041659 -3.06319e-07 -5.29396e-21 0.000178539 -2.11758e-20 0)
(-0.000415751 -3.06319e-07 1.05879e-20 0.000178179 2.11758e-20 0)
(-0.000414912 -3.06319e-07 -5.29396e-21 0.00017782 0 0)
(-0.000414073 -3.06319e-07 -5.29396e-21 0.00017746 8.47033e-20 0)
(-0.000413234 -3.06319e-07 1.05879e-20 0.0001771 -6.35275e-20 0)
(-0.000412395 -3.06319e-07 1.05879e-20 0.000176741 -6.35275e-20 0)
(-0.000411556 -3.06319e-07 0 0.000176381 0 0)
(-0.000410717 -3.06319e-07 1.05879e-20 0.000176022 -2.11758e-20 0)
(-0.000409878 -3.06319e-07 -5.29396e-21 0.000175662 2.11758e-20 0)
(-0.000409039 -3.06319e-07 -1.05879e-20 0.000175302 8.47033e-20 0)
(-0.0004082 -3.06319e-07 0 0.000174943 4.23516e-20 0)
(-0.000407361 -3.06319e-07 1.05879e-20 0.000174583 0 0)
(-0.000406522 -3.06319e-07 2.64698e-20 0.000174224 -2.11758e-20 0)
(-0.000405683 -3.06319e-07 1.58819e-20 0.000173864 2.11758e-20 0)
(-0.000404844 -3.06319e-07 -1.05879e-20 0.000173504 -8.47033e-20 0)
(-0.000404005 -3.06319e-07 -1.58819e-20 0.000173145 1.27055e-19 0)
(-0.000403166 -3.06319e-07 0 0.000172785 2.11758e-20 0)
(-0.000402327 -3.06319e-07 -5.29396e-21 0.000172426 0 0)
(-0.000401487 -3.06319e-07 -5.29396e-21 0.000172066 -1.48231e-19 0)
(-0.000400648 -3.06319e-07 0 0.000171706 -6.35275e-20 0)
(-0.000399809 -3.06319e-07 0 0.000171347 0 0)
(-0.00039897 -3.06319e-07 0 0.000170987 -6.35275e-20 0)
(-0.000398131 -3.06319e-07 5.29396e-21 0.000170628 2.11758e-20 0)
(-0.000397292 -3.06319e-07 -5.29396e-21 0.000170268 -6.35275e-20 0)
(-0.000396453 -3.06319e-07 0 0.000169909 4.23516e-20 0)
(-0.000395614 -3.06319e-07 -5.29396e-21 0.000169549 2.11758e-20 0)
(-0.000394775 -3.06319e-07 -1.05879e-20 0.000169189 4.23516e-20 0)
(-0.000393936 -3.06319e-07 -1.05879e-20 0.00016883 -2.11758e-20 0)
(-0.000393097 -3.06319e-07 -5.29396e-21 0.00016847 -6.35275e-20 0)
(-0.000392258 -3.06319e-07 1.05879e-20 0.000168111 6.35275e-20 0)
(-0.000391419 -3.06319e-07 3.17637e-20 0.000167751 2.11758e-20 0)
(-0.00039058 -3.06319e-07 2.11758e-20 0.000167391 2.11758e-20 0)
(-0.000389741 -3.06319e-07 -1.05879e-20 0.000167032 0 0)
(-0.000388902 -3.06319e-07 1.58819e-20 0.000166672 -6.35275e-20 0)
(-0.000388063 -3.06319e-07 0 0.000166313 -4.23516e-20 0)
(-0.000387224 -3.06319e-07 1.05879e-20 0.000165953 -8.47033e-20 0)
(-0.000386385 -3.06319e-07 -5.29396e-21 0.000165593 8.47033e-20 0)
(-0.000385546 -3.06319e-07 5.29396e-21 0.000165234 -4.23516e-20 0)
(-0.000384707 -3.06319e-07 -1.58819e-20 0.000164874 -1.69407e-19 0)
(-0.000383867 -3.06319e-07 -1.05879e-20 0.000164515 4.23516e-20 0)
(-0.000383028 -3.06319e-07 -5.29396e-21 0.000164155 4.23516e-20 0)
(-0.000382189 -3.06319e-07 0 0.000163795 4.23516e-20 0)
(-0.00038135 -3.06319e-07 5.29396e-21 0.000163436 0 0)
(-0.000380511 -3.06319e-07 -5.29396e-21 0.000163076 -2.5411e-19 0)
(-0.000379672 -3.06319e-07 -1.05879e-20 0.000162717 0 0)
(-0.000378833 -3.06319e-07 5.29396e-21 0.000162357 0 0)
(-0.000377994 -3.06319e-07 1.05879e-20 0.000161997 0 0)
(-0.000377155 -3.06319e-07 1.05879e-20 0.000161638 -4.23516e-20 0)
(-0.000376316 -3.06319e-07 -1.58819e-20 0.000161278 -1.69407e-19 0)
(-0.000375477 -3.06319e-07 5.29396e-21 0.000160919 1.27055e-19 0)
(-0.000374638 -3.06319e-07 0 0.000160559 4.23516e-20 0)
(-0.000373799 -3.06319e-07 0 0.0001602 -8.47033e-20 0)
(-0.00037296 -3.06319e-07 1.05879e-20 0.00015984 -4.23516e-20 0)
(-0.000372121 -3.06319e-07 -5.29396e-21 0.00015948 -1.27055e-19 0)
(-0.000371282 -3.06319e-07 1.05879e-20 0.000159121 0 0)
(-0.000370443 -3.06319e-07 -5.29396e-21 0.000158761 -4.23516e-20 0)
(-0.000369604 -3.06319e-07 -1.05879e-20 0.000158402 -4.23516e-20 0)
(-0.000368765 -3.06319e-07 -1.05879e-20 0.000158042 4.23516e-20 0)
(-0.000367926 -3.06319e-07 5.29396e-21 0.000157682 0 0)
(-0.000367087 -3.06319e-07 0 0.000157323 0 0)
(-0.000366247 -3.06319e-07 5.29396e-21 0.000156963 4.23516e-20 0)
(-0.000365408 -3.06319e-07 0 0.000156604 -8.47033e-20 0)
(-0.000364569 -3.06319e-07 -1.05879e-20 0.000156244 -4.23516e-20 0)
(-0.00036373 -3.06319e-07 1.58819e-20 0.000155884 -1.27055e-19 0)
(-0.000362891 -3.06319e-07 5.29396e-21 0.000155525 -8.47033e-20 0)
(-0.000362052 -3.06319e-07 5.29396e-21 0.000155165 0 0)
(-0.000361213 -3.06319e-07 -5.29396e-21 0.000154806 8.47033e-20 0)
(-0.000360374 -3.06319e-07 -5.29396e-21 0.000154446 4.23516e-20 0)
(-0.000359535 -3.06319e-07 -2.11758e-20 0.000154086 -1.27055e-19 0)
(-0.000358696 -3.06319e-07 -5.29396e-21 0.000153727 -4.23516e-20 0)
(-0.000357857 -3.06319e-07 -3.17637e-20 0.000153367 -2.96462e-19 0)
(-0.000357018 -3.06319e-07 -1.05879e-20 0.000153008 0 0)
(-0.000356179 -3.06319e-07 1.05879e-20 0.000152648 1.27055e-19 0)
(-0.00035534 -3.06319e-07 -3.17637e-20 0.000152289 -1.27055e-19 0)
(-0.000354501 -3.06319e-07 -5.29396e-21 0.000151929 4.23516e-20 0)
(-0.000353662 -3.06319e-07 0 0.000151569 -1.69407e-19 0)
(-0.000352823 -3.06319e-07 -1.58819e-20 0.00015121 0 0)
(-0.000351984 -3.06319e-07 2.11758e-20 0.00015085 1.69407e-19 0)
(-0.000351145 -3.06319e-07 -2.11758e-20 0.000150491 -1.69407e-19 0)
(-0.000350306 -3.06319e-07 0 0.000150131 -4.23516e-20 0)
(-0.000349467 -3.06319e-07 5.29396e-21 0.000149771 -1.69407e-19 0)
(-0.000348627 -3.06319e-07 -5.29396e-21 0.000149412 4.23516e-20 0)
(-0.000347788 -3.06319e-07 2.64698e-20 0.000149052 2.96462e-19 0)
(-0.000346949 -3.06319e-07 1.58819e-20 0.000148693 -2.11758e-19 0)
(-0.00034611 -3.06319e-07 1.05879e-20 0.000148333 -8.47033e-20 0)
(-0.000345271 -3.06319e-07 -5.29396e-21 0.000147973 -2.5411e-19 0)
(-0.000344432 -3.06319e-07 -3.17637e-20 0.000147614 2.96462e-19 0)
(-0.000343593 -3.06319e-07 2.64698e-20 0.000147254 4.65868e-19 0)
(-0.000342754 -3.06319e-07 -5.29396e-21 0.000146895 -8.47033e-20 0)
(-0.000341915 -3.06319e-07 -1.58819e-20 0.000146535 -1.27055e-19 0)
(-0.000341076 -3.06319e-07 -1.05879e-20 0.000146175 0 0)
(-0.000340237 -3.06319e-07 -2.64698e-20 0.000145816 -3.38813e-19 0)
(-0.000339398 -3.06319e-07 2.64698e-20 0.000145456 4.65868e-19 0)
(-0.000338559 -3.06319e-07 0 0.000145097 -4.23516e-20 0)
(-0.00033772 -3.06319e-07 5.29396e-21 0.000144737 4.23516e-20 0)
(-0.000336881 -3.06319e-07 -2.64698e-20 0.000144378 -1.69407e-19 0)
(-0.000336042 -3.06319e-07 -1.58819e-20 0.000144018 4.23516e-20 0)
(-0.000335203 -3.06319e-07 3.70577e-20 0.000143658 4.23516e-19 0)
(-0.000334364 -3.06319e-07 -2.11758e-20 0.000143299 8.47033e-20 0)
(-0.000333525 -3.06319e-07 1.05879e-20 0.000142939 -1.27055e-19 0)
(-0.000332686 -3.06319e-07 -5.29396e-21 0.00014258 0 0)
(-0.000331847 -3.06319e-07 -3.70577e-20 0.00014222 -1.27055e-19 0)
(-0.000331008 -3.06319e-07 1.58819e-20 0.00014186 2.96462e-19 0)
(-0.000330168 -3.06319e-07 -1.05879e-20 0.000141501 0 0)
(-0.000329329 -3.06319e-07 0 0.000141141 4.23516e-20 0)
(-0.00032849 -3.06319e-07 2.11758e-20 0.000140782 -2.5411e-19 0)
(-0.000327651 -3.06319e-07 5.29396e-21 0.000140422 4.23516e-20 0)
(-0.000326812 -3.06319e-07 3.17637e-20 0.000140062 3.81165e-19 0)
(-0.000325973 -3.06319e-07 -5.29396e-21 0.000139703 0 0)
(-0.000325134 -3.06319e-07 -5.29396e-21 0.000139343 0 0)
(-0.000324295 -3.06319e-07 -1.58819e-20 0.000138984 -1.69407e-19 0)
(-0.000323456 -3.06319e-07 5.29396e-21 0.000138624 0 0)
(-0.000322617 -3.06319e-07 3.17637e-20 0.000138264 1.69407e-19 0)
(-0.000321778 -3.06319e-07 -5.29396e-21 0.000137905 -8.47033e-20 0)
(-0.000320939 -3.06319e-07 -5.29396e-21 0.000137545 -8.47033e-20 0)
(-0.0003201 -3.06319e-07 -2.64698e-20 0.000137186 1.69407e-19 0)
(-0.000319261 -3.06319e-07 0 0.000136826 1.69407e-19 0)
(-0.000318422 -3.06319e-07 0 0.000136466 6.77626e-19 0)
(-0.000317583 -3.06319e-07 -5.29396e-21 0.000136107 -2.5411e-19 0)
(-0.000316744 -3.06319e-07 -5.29396e-21 0.000135747 8.47033e-20 0)
(-0.000315905 -3.06319e-07 -1.58819e-20 0.000135388 8.47033e-20 0)
(-0.000315066 -3.06319e-07 -5.29396e-21 0.000135028 -2.5411e-19 0)
(-0.000314227 -3.06319e-07 3.70577e-20 0.000134669 5.0822e-19 0)
(-0.000313388 -3.06319e-07 5.29396e-21 0.000134309 -8.47033e-20 0)
(-0.000312548 -3.06319e-07 -5.29396e-21 0.000133949 -1.69407e-19 0)
(-0.000311709 -3.06319e-07 -5.29396e-21 0.00013359 8.47033e-20 0)
(-0.00031087 -3.06319e-07 -3.70577e-20 0.00013323 -2.5411e-19 0)
(-0.000310031 -3.06319e-07 2.64698e-20 0.000132871 5.0822e-19 0)
(-0.000309192 -3.06319e-07 -5.29396e-21 0.000132511 -8.47033e-20 0)
(-0.000308353 -3.06319e-07 -1.05879e-20 0.000132151 1.69407e-19 0)
(-0.000307514 -3.06319e-07 0 0.000131792 -8.47033e-20 0)
(-0.000306675 -3.06319e-07 -1.58819e-20 0.000131432 0 0)
(-0.000305836 -3.06319e-07 4.76456e-20 0.000131073 1.69407e-19 0)
(-0.000304997 -3.06319e-07 0 0.000130713 -2.5411e-19 0)
(-0.000304158 -3.06319e-07 -5.29396e-21 0.000130353 0 0)
(-0.000303319 -3.06319e-07 1.05879e-20 0.000129994 8.47033e-20 0)
(-0.00030248 -3.06319e-07 -3.70577e-20 0.000129634 1.69407e-19 0)
(-0.000301641 -3.06319e-07 1.05879e-20 0.000129275 3.38813e-19 0)
(-0.000300802 -3.06319e-07 -2.11758e-20 0.000128915 -2.5411e-19 0)
(-0.000299963 -3.06319e-07 5.29396e-21 0.000128555 1.69407e-19 0)
(-0.000299124 -3.06319e-07 -5.29396e-21 0.000128196 0 0)
(-0.000298285 -3.06319e-07 5.29396e-21 0.000127836 8.47033e-20 0)
(-0.000297446 -3.06319e-07 3.70577e-20 0.000127477 2.5411e-19 0)
(-0.000296607 -3.06319e-07 0 0.000127117 -4.23516e-19 0)
(-0.000295768 -3.06319e-07 5.29396e-21 0.000126758 -2.5411e-19 0)
(-0.000294928 -3.06319e-07 -2.64698e-20 0.000126398 -5.92923e-19 0)
(-0.000294089 -3.06319e-07 -2.64698e-20 0.000126038 -3.38813e-19 0)
(-0.00029325 -3.06319e-07 5.82335e-20 0.000125679 5.0822e-19 0)
(-0.000292411 -3.06319e-07 0 0.000125319 -2.5411e-19 0)
(-0.000291572 -3.06319e-07 1.05879e-20 0.00012496 0 0)
(-0.000290733 -3.06319e-07 -1.05879e-20 0.0001246 -3.38813e-19 0)
(-0.000289894 -3.06319e-07 -1.05879e-20 0.00012424 -2.5411e-19 0)
(-0.000289055 -3.06319e-07 4.23516e-20 0.000123881 7.6233e-19 0)
(-0.000288216 -3.06319e-07 1.05879e-20 0.000123521 -4.23516e-19 0)
(-0.000287377 -3.06319e-07 -1.05879e-20 0.000123162 -1.69407e-19 0)
(-0.000286538 -3.06319e-07 0 0.000122802 -8.47033e-20 0)
(-0.000285699 -3.06319e-07 0 0.000122442 -1.69407e-19 0)
(-0.00028486 -3.06319e-07 5.29396e-20 0.000122083 5.0822e-19 0)
(-0.000284021 -3.06319e-07 -2.11758e-20 0.000121723 -8.47033e-20 0)
(-0.000283182 -3.06319e-07 -1.05879e-20 0.000121364 0 0)
(-0.000282343 -3.06319e-07 -1.05879e-20 0.000121004 -1.69407e-19 0)
(-0.000281504 -3.06319e-07 -4.23516e-20 0.000120644 -1.69407e-19 0)
(-0.000280665 -3.06319e-07 6.35275e-20 0.000120285 4.23516e-19 0)
(-0.000279826 -3.06319e-07 1.05879e-20 0.000119925 -8.47033e-20 0)
(-0.000278987 -3.06319e-07 1.05879e-20 0.000119566 8.47033e-20 0)
(-0.000278148 -3.06319e-07 1.05879e-20 0.000119206 -3.38813e-19 0)
(-0.000277308 -3.06319e-07 -3.17637e-20 0.000118846 8.47033e-20 0)
(-0.000276469 -3.06319e-07 2.11758e-20 0.000118487 3.38813e-19 0)
(-0.00027563 -3.06319e-07 -1.05879e-20 0.000118127 -2.5411e-19 0)
(-0.000274791 -3.06319e-07 -2.11758e-20 0.000117768 5.0822e-19 0)
(-0.000273952 -3.06319e-07 1.05879e-20 0.000117408 0 0)
(-0.000273113 -3.06319e-07 -1.05879e-20 0.000117049 -5.92923e-19 0)
(-0.000272274 -3.06319e-07 0 0.000116689 3.38813e-19 0)
(-0.000271435 -3.06319e-07 4.23516e-20 0.000116329 -3.38813e-19 0)
(-0.000270596 -3.06319e-07 1.05879e-20 0.00011597 -8.47033e-20 0)
(-0.000269757 -3.06319e-07 0 0.00011561 0 0)
(-0.000268918 -3.06319e-07 1.05879e-20 0.000115251 -1.69407e-19 0)
(-0.000268079 -3.06319e-07 1.05879e-20 0.000114891 0 0)
(-0.00026724 -3.06319e-07 -4.23516e-20 0.000114531 1.69407e-19 0)
(-0.000266401 -3.06319e-07 2.11758e-20 0.000114172 0 0)
(-0.000265562 -3.06319e-07 -1.05879e-20 0.000113812 -8.47033e-20 0)
(-0.000264723 -3.06319e-07 2.11758e-20 0.000113453 -3.38813e-19 0)
(-0.000263884 -3.06319e-07 0 0.000113093 8.47033e-20 0)
(-0.000263045 -3.06319e-07 1.05879e-20 0.000112733 8.47033e-20 0)
(-0.000262206 -3.06319e-07 2.11758e-20 0.000112374 2.5411e-19 0)
(-0.000261367 -3.06319e-07 -1.05879e-20 0.000112014 -4.23516e-19 0)
(-0.000260528 -3.06319e-07 1.05879e-20 0.000111655 0 0)
(-0.000259688 -3.06319e-07 2.11758e-20 0.000111295 -1.69407e-19 0)
(-0.000258849 -3.06319e-07 2.11758e-20 0.000110935 1.69407e-19 0)
(-0.00025801 -3.06319e-07 3.17637e-20 0.000110576 8.47033e-20 0)
(-0.000257171 -3.06319e-07 -3.17637e-20 0.000110216 -3.38813e-19 0)
(-0.000256332 -3.06319e-07 -1.05879e-20 0.000109857 -8.47033e-20 0)
(-0.000255493 -3.06319e-07 0 0.000109497 0 0)
(-0.000254654 -3.06319e-07 3.17637e-20 0.000109138 -1.69407e-19 0)
(-0.000253815 -3.06319e-07 0 0.000108778 -2.5411e-19 0)
(-0.000252976 -3.06319e-07 -1.05879e-20 0.000108418 -1.69407e-19 0)
(-0.000252137 -3.06319e-07 1.05879e-20 0.000108059 8.47033e-20 0)
(-0.000251298 -3.06319e-07 0 0.000107699 0 0)
(-0.000250459 -3.06319e-07 -1.05879e-20 0.00010734 1.69407e-19 0)
(-0.00024962 -3.06319e-07 -1.05879e-20 0.00010698 -1.69407e-19 0)
(-0.000248781 -3.06319e-07 1.05879e-20 0.00010662 -5.92923e-19 0)
(-0.000247942 -3.06319e-07 0 0.000106261 -8.47033e-20 0)
(-0.000247103 -3.06319e-07 -4.23516e-20 0.000105901 1.69407e-19 0)
(-0.000246264 -3.06319e-07 3.17637e-20 0.000105542 -4.23516e-19 0)
(-0.000245425 -3.06319e-07 -4.23516e-20 0.000105182 0 0)
(-0.000244586 -3.06319e-07 -5.29396e-20 0.000104822 -4.23516e-19 0)
(-0.000243747 -3.06319e-07 -3.17637e-20 0.000104463 1.69407e-19 0)
(-0.000242908 -3.06319e-07 2.11758e-20 0.000104103 -8.47033e-20 0)
(-0.000242069 -3.06319e-07 0 0.000103744 -8.47033e-20 0)
(-0.000241229 -3.06319e-07 0 0.000103384 4.23516e-19 0)
(-0.00024039 -3.06319e-07 2.11758e-20 0.000103024 -8.47033e-20 0)
(-0.000239551 -3.06319e-07 0 0.000102665 -8.47033e-20 0)
(-0.000238712 -3.06319e-07 -2.11758e-20 0.000102305 -8.47033e-20 0)
(-0.000237873 -3.06319e-07 0 0.000101946 0 0)
(-0.000237034 -3.06319e-07 -2.11758e-20 0.000101586 8.47033e-20 0)
(-0.000236195 -3.06319e-07 1.05879e-20 0.000101227 -1.69407e-19 0)
(-0.000235356 -3.06319e-07 1.05879e-20 0.000100867 -8.47033e-20 0)
(-0.000234517 -3.06319e-07 2.11758e-20 0.000100507 8.47033e-20 0)
(-0.000233678 -3.06319e-07 2.11758e-20 0.000100148 -1.69407e-19 0)
(-0.000232839 -3.06319e-07 0 9.97881e-05 0 0)
(-0.000232 -3.06319e-07 -1.05879e-20 9.94285e-05 -5.0822e-19 0)
(-0.000231161 -3.06319e-07 -2.11758e-20 9.9069e-05 0 0)
(-0.000230322 -3.06319e-07 0 9.87094e-05 8.47033e-20 0)
(-0.000229483 -3.06319e-07 -1.05879e-20 9.83498e-05 -1.69407e-19 0)
(-0.000228644 -3.06319e-07 1.05879e-20 9.79902e-05 0 0)
(-0.000227805 -3.06319e-07 -3.17637e-20 9.76306e-05 -1.69407e-19 0)
(-0.000226966 -3.06319e-07 0 9.7271e-05 -2.5411e-19 0)
(-0.000226127 -3.06319e-07 -1.05879e-20 9.69114e-05 0 0)
(-0.000225288 -3.06319e-07 -1.05879e-20 9.65518e-05 3.38813e-19 0)
(-0.000224449 -3.06319e-07 0 9.61922e-05 -1.69407e-19 0)
(-0.000223609 -3.06319e-07 -1.05879e-20 9.58326e-05 -6.77626e-19 0)
(-0.00022277 -3.06319e-07 -2.11758e-20 9.5473e-05 -8.47033e-20 0)
(-0.000221931 -3.06319e-07 0 9.51134e-05 -1.69407e-19 0)
(-0.000221092 -3.06319e-07 0 9.47539e-05 0 0)
(-0.000220253 -3.06319e-07 1.05879e-20 9.43943e-05 0 0)
(-0.000219414 -3.06319e-07 1.05879e-20 9.40347e-05 -8.47033e-19 0)
(-0.000218575 -3.06319e-07 0 9.36751e-05 1.69407e-19 0)
(-0.000217736 -3.06319e-07 2.11758e-20 9.33155e-05 -1.69407e-19 0)
(-0.000216897 -3.06319e-07 0 9.29559e-05 -3.38813e-19 0)
(-0.000216058 -3.06319e-07 0 9.25963e-05 1.69407e-19 0)
(-0.000215219 -3.06319e-07 -1.05879e-20 9.22367e-05 -5.0822e-19 0)
(-0.00021438 -3.06319e-07 -1.05879e-20 9.18771e-05 0 0)
(-0.000213541 -3.06319e-07 2.11758e-20 9.15175e-05 -1.69407e-19 0)
(-0.000212702 -3.06319e-07 3.17637e-20 9.11579e-05 -3.38813e-19 0)
(-0.000211863 -3.06319e-07 -1.05879e-20 9.07983e-05 -3.38813e-19 0)
(-0.000211024 -3.06319e-07 0 9.04388e-05 -3.38813e-19 0)
(-0.000210185 -3.06319e-07 -3.17637e-20 9.00792e-05 1.01644e-18 0)
(-0.000209346 -3.06319e-07 -2.11758e-20 8.97196e-05 -3.38813e-19 0)
(-0.000208507 -3.06319e-07 0 8.936e-05 0 0)
(-0.000207668 -3.06319e-07 -1.05879e-20 8.90004e-05 0 0)
(-0.000206829 -3.06319e-07 1.05879e-20 8.86408e-05 -5.0822e-19 0)
(-0.000205989 -3.06319e-07 2.11758e-20 8.82812e-05 -1.69407e-19 0)
(-0.00020515 -3.06319e-07 0 8.79216e-05 1.69407e-19 0)
(-0.000204311 -3.06319e-07 -3.17637e-20 8.7562e-05 -1.69407e-19 0)
(-0.000203472 -3.06319e-07 1.05879e-20 8.72024e-05 1.69407e-19 0)
(-0.000202633 -3.06319e-07 0 8.68428e-05 -1.69407e-19 0)
(-0.000201794 -3.06319e-07 2.11758e-20 8.64832e-05 -1.69407e-19 0)
(-0.000200955 -3.06319e-07 -2.11758e-20 8.61237e-05 -5.0822e-19 0)
(-0.000200116 -3.06319e-07 -1.05879e-20 8.57641e-05 0 0)
(-0.000199277 -3.06319e-07 -1.05879e-20 8.54045e-05 0 0)
(-0.000198438 -3.06319e-07 -5.29396e-20 8.50449e-05 -5.0822e-19 0)
(-0.000197599 -3.06319e-07 0 8.46853e-05 0 0)
(-0.00019676 -3.06319e-07 0 8.43257e-05 5.0822e-19 0)
(-0.000195921 -3.06319e-07 -1.05879e-20 8.39661e-05 -1.69407e-19 0)
(-0.000195082 -3.06319e-07 1.05879e-20 8.36065e-05 -1.69407e-19 0)
(-0.000194243 -3.06319e-07 -2.11758e-20 8.32469e-05 -6.77626e-19 0)
(-0.000193404 -3.06319e-07 2.11758e-20 8.28873e-05 -3.38813e-19 0)
(-0.000192565 -3.06319e-07 1.05879e-20 8.25277e-05 5.0822e-19 0)
(-0.000191726 -3.06319e-07 0 8.21681e-05 6.77626e-19 0)
(-0.000190887 -3.06319e-07 0 8.18086e-05 -1.69407e-19 0)
(-0.000190048 -3.06319e-07 2.11758e-20 8.1449e-05 -8.47033e-19 0)
(-0.000189209 -3.06319e-07 1.05879e-20 8.10894e-05 -3.38813e-19 0)
(-0.000188369 -3.06319e-07 -2.11758e-20 8.07298e-05 0 0)
(-0.00018753 -3.06319e-07 -1.05879e-20 8.03702e-05 -1.69407e-19 0)
(-0.000186691 -3.06319e-07 3.17637e-20 8.00106e-05 -3.38813e-19 0)
(-0.000185852 -3.06319e-07 2.11758e-20 7.9651e-05 -8.47033e-19 0)
(-0.000185013 -3.06319e-07 -1.05879e-20 7.92914e-05 1.69407e-19 0)
(-0.000184174 -3.06319e-07 1.05879e-20 7.89318e-05 5.0822e-19 0)
(-0.000183335 -3.06319e-07 -3.17637e-20 7.85722e-05 0 0)
(-0.000182496 -3.06319e-07 0 7.82126e-05 -1.69407e-19 0)
(-0.000181657 -3.06319e-07 1.05879e-20 7.7853e-05 -3.38813e-19 0)
(-0.000180818 -3.06319e-07 2.11758e-20 7.74935e-05 3.38813e-19 0)
(-0.000179979 -3.06319e-07 4.23516e-20 7.71339e-05 -3.38813e-19 0)
(-0.00017914 -3.06319e-07 0 7.67743e-05 -1.69407e-19 0)
(-0.000178301 -3.06319e-07 1.05879e-20 7.64147e-05 -3.38813e-19 0)
(-0.000177462 -3.06319e-07 1.05879e-20 7.60551e-05 -1.69407e-19 0)
(-0.000176623 -3.06319e-07 1.05879e-20 7.56955e-05 -1.69407e-19 0)
(-0.000175784 -3.06319e-07 -1.05879e-20 7.53359e-05 -3.38813e-19 0)
(-0.000174945 -3.06319e-07 -3.17637e-20 7.49763e-05 -6.77626e-19 0)
(-0.000174106 -3.06319e-07 2.11758e-20 7.46167e-05 3.38813e-19 0)
(-0.000173267 -3.06319e-07 0 7.42571e-05 1.69407e-19 0)
(-0.000172428 -3.06319e-07 -1.05879e-20 7.38975e-05 -1.69407e-19 0)
(-0.000171589 -3.06319e-07 1.05879e-20 7.35379e-05 1.69407e-19 0)
(-0.000170749 -3.06319e-07 0 7.31784e-05 -3.38813e-19 0)
(-0.00016991 -3.06319e-07 -2.11758e-20 7.28188e-05 1.69407e-19 0)
(-0.000169071 -3.06319e-07 -3.17637e-20 7.24592e-05 -3.38813e-19 0)
(-0.000168232 -3.06319e-07 0 7.20996e-05 3.38813e-19 0)
(-0.000167393 -3.06319e-07 -1.05879e-20 7.174e-05 1.69407e-19 0)
(-0.000166554 -3.06319e-07 1.05879e-20 7.13804e-05 -5.0822e-19 0)
(-0.000165715 -3.06319e-07 -1.05879e-20 7.10208e-05 0 0)
(-0.000164876 -3.06319e-07 0 7.06612e-05 -1.18585e-18 0)
(-0.000164037 -3.06319e-07 0 7.03016e-05 6.77626e-19 0)
(-0.000163198 -3.06319e-07 -1.05879e-20 6.9942e-05 0 0)
(-0.000162359 -3.06319e-07 -3.17637e-20 6.95824e-05 -5.0822e-19 0)
(-0.00016152 -3.06319e-07 -2.11758e-20 6.92228e-05 3.38813e-19 0)
(-0.000160681 -3.06319e-07 0 6.88633e-05 -3.38813e-19 0)
(-0.000159842 -3.06319e-07 -2.11758e-20 6.85037e-05 8.47033e-19 0)
(-0.000159003 -3.06319e-07 0 6.81441e-05 -1.69407e-19 0)
(-0.000158164 -3.06319e-07 -1.05879e-20 6.77845e-05 1.69407e-19 0)
(-0.000157325 -3.06319e-07 -1.05879e-20 6.74249e-05 0 0)
(-0.000156486 -3.06319e-07 1.05879e-20 6.70653e-05 1.69407e-19 0)
(-0.000155647 -3.06319e-07 -2.11758e-20 6.67057e-05 3.38813e-19 0)
(-0.000154808 -3.06319e-07 0 6.63461e-05 0 0)
(-0.000153969 -3.06319e-07 2.11758e-20 6.59865e-05 -5.0822e-19 0)
(-0.000153129 -3.06319e-07 0 6.56269e-05 6.77626e-19 0)
(-0.00015229 -3.06319e-07 -5.29396e-20 6.52673e-05 -5.0822e-19 0)
(-0.000151451 -3.06319e-07 -2.11758e-20 6.49077e-05 0 0)
(-0.000150612 -3.06319e-07 -1.05879e-20 6.45482e-05 3.38813e-19 0)
(-0.000149773 -3.06319e-07 -2.11758e-20 6.41886e-05 -1.69407e-19 0)