/*--------------------------------*- C++ -*----------------------------------*\
| =========                 |                                                 |
| \\      /  F ield         | foam-extend: Open Source CFD                    |
|  \\    /   O peration     | Version:     4.0                                |
|   \\  /    A nd           | Web:         http://www.foam-extend.org         |
|    \\/     M anipulation  |                                                 |
\*---------------------------------------------------------------------------*/
FoamFile
{
    version     2.0;
    format      ascii;
    class       pointVectorField;
    location    "1";
    object      pointDD;
}
// * * * * * * * * * * * * * * * * * * * * * * * * * * * * * * * * * * * * * //

dimensions      [0 1 0 0 0 0 0];

internalField   nonuniform List<vector> 
83330
(
(-4.08264e-07 -2.02706e-07 0)
(-2.30019e-06 -1.83576e-06 0)
(-3.9052e-06 -2.84809e-06 0)
(-5.47583e-06 -3.65294e-06 0)
(-7.03986e-06 -4.38978e-06 0)
(-8.61014e-06 -5.12306e-06 0)
(-1.01915e-05 -5.88829e-06 0)
(-1.1785e-05 -6.70759e-06 0)
(-1.33902e-05 -7.5956e-06 0)
(-1.50057e-05 -8.56243e-06 0)
(-1.66299e-05 -9.61522e-06 0)
(-1.82613e-05 -1.0759e-05 0)
(-1.98984e-05 -1.19976e-05 0)
(-2.15399e-05 -1.33335e-05 0)
(-2.31846e-05 -1.47686e-05 0)
(-2.48314e-05 -1.63044e-05 0)
(-2.64795e-05 -1.79416e-05 0)
(-2.81282e-05 -1.96811e-05 0)
(-2.97769e-05 -2.15232e-05 0)
(-3.14249e-05 -2.34681e-05 0)
(-3.3072e-05 -2.5516e-05 0)
(-3.47178e-05 -2.76668e-05 0)
(-3.63619e-05 -2.99207e-05 0)
(-3.80042e-05 -3.22775e-05 0)
(-3.96444e-05 -3.4737e-05 0)
(-4.12825e-05 -3.72992e-05 0)
(-4.29183e-05 -3.99639e-05 0)
(-4.45517e-05 -4.2731e-05 0)
(-4.61827e-05 -4.56002e-05 0)
(-4.78112e-05 -4.85714e-05 0)
(-4.94371e-05 -5.16444e-05 0)
(-5.10605e-05 -5.48191e-05 0)
(-5.26812e-05 -5.80952e-05 0)
(-5.42993e-05 -6.14726e-05 0)
(-5.59148e-05 -6.49511e-05 0)
(-5.75277e-05 -6.85306e-05 0)
(-5.91379e-05 -7.22108e-05 0)
(-6.07454e-05 -7.59915e-05 0)
(-6.23503e-05 -7.98727e-05 0)
(-6.39525e-05 -8.38542e-05 0)
(-6.55521e-05 -8.79357e-05 0)
(-6.7149e-05 -9.21171e-05 0)
(-6.87432e-05 -9.63982e-05 0)
(-7.03347e-05 -0.000100779 0)
(-7.19236e-05 -0.000105259 0)
(-7.35098e-05 -0.000109838 0)
(-7.50934e-05 -0.000114517 0)
(-7.66743e-05 -0.000119294 0)
(-7.82525e-05 -0.00012417 0)
(-7.98281e-05 -0.000129145 0)
(-8.1401e-05 -0.000134217 0)
(-8.29712e-05 -0.000139389 0)
(-8.45388e-05 -0.000144658 0)
(-8.61037e-05 -0.000150025 0)
(-8.76659e-05 -0.00015549 0)
(-8.92255e-05 -0.000161052 0)
(-9.07824e-05 -0.000166712 0)
(-9.23366e-05 -0.000172469 0)
(-9.38882e-05 -0.000178323 0)
(-9.54372e-05 -0.000184274 0)
(-9.69834e-05 -0.000190322 0)
(-9.8527e-05 -0.000196466 0)
(-0.000100068 -0.000202707 0)
(-0.000101606 -0.000209043 0)
(-0.000103142 -0.000215476 0)
(-0.000104675 -0.000222005 0)
(-0.000106205 -0.00022863 0)
(-0.000107733 -0.00023535 0)
(-0.000109258 -0.000242165 0)
(-0.00011078 -0.000249076 0)
(-0.000112299 -0.000256082 0)
(-0.000113816 -0.000263182 0)
(-0.000115331 -0.000270378 0)
(-0.000116842 -0.000277668 0)
(-0.000118351 -0.000285052 0)
(-0.000119858 -0.000292531 0)
(-0.000121361 -0.000300103 0)
(-0.000122862 -0.00030777 0)
(-0.000124361 -0.00031553 0)
(-0.000125856 -0.000323384 0)
(-0.000127349 -0.000331331 0)
(-0.000128839 -0.000339371 0)
(-0.000130327 -0.000347505 0)
(-0.000131812 -0.000355731 0)
(-0.000133294 -0.00036405 0)
(-0.000134774 -0.000372462 0)
(-0.000136251 -0.000380966 0)
(-0.000137725 -0.000389562 0)
(-0.000139197 -0.000398251 0)
(-0.000140666 -0.000407031 0)
(-0.000142132 -0.000415903 0)
(-0.000143596 -0.000424867 0)
(-0.000145057 -0.000433921 0)
(-0.000146516 -0.000443068 0)
(-0.000147971 -0.000452305 0)
(-0.000149424 -0.000461633 0)
(-0.000150875 -0.000471052 0)
(-0.000152322 -0.000480561 0)
(-0.000153767 -0.000490161 0)
(-0.00015521 -0.000499851 0)
(-0.000156649 -0.000509631 0)
(-0.000158086 -0.000519501 0)
(-0.000159521 -0.000529461 0)
(-0.000160953 -0.00053951 0)
(-0.000162382 -0.000549649 0)
(-0.000163808 -0.000559877 0)
(-0.000165232 -0.000570194 0)
(-0.000166653 -0.0005806 0)
(-0.000168071 -0.000591095 0)
(-0.000169487 -0.000601678 0)
(-0.0001709 -0.00061235 0)
(-0.00017231 -0.000623109 0)
(-0.000173718 -0.000633957 0)
(-0.000175123 -0.000644893 0)
(-0.000176526 -0.000655917 0)
(-0.000177925 -0.000667028 0)
(-0.000179323 -0.000678226 0)
(-0.000180717 -0.000689512 0)
(-0.000182109 -0.000700885 0)
(-0.000183498 -0.000712345 0)
(-0.000184884 -0.000723891 0)
(-0.000186268 -0.000735524 0)
(-0.000187649 -0.000747244 0)
(-0.000189028 -0.000759049 0)
(-0.000190403 -0.000770941 0)
(-0.000191776 -0.000782919 0)
(-0.000193147 -0.000794982 0)
(-0.000194515 -0.000807131 0)
(-0.00019588 -0.000819366 0)
(-0.000197242 -0.000831685 0)
(-0.000198602 -0.00084409 0)
(-0.000199959 -0.000856579 0)
(-0.000201314 -0.000869154 0)
(-0.000202666 -0.000881813 0)
(-0.000204015 -0.000894556 0)
(-0.000205361 -0.000907383 0)
(-0.000206705 -0.000920295 0)
(-0.000208046 -0.000933291 0)
(-0.000209385 -0.00094637 0)
(-0.00021072 -0.000959533 0)
(-0.000212054 -0.000972779 0)
(-0.000213384 -0.000986108 0)
(-0.000214712 -0.000999521 0)
(-0.000216037 -0.00101302 0)
(-0.00021736 -0.00102659 0)
(-0.000218679 -0.00104026 0)
(-0.000219997 -0.001054 0)
(-0.000221311 -0.00106782 0)
(-0.000222623 -0.00108173 0)
(-0.000223932 -0.00109572 0)
(-0.000225239 -0.00110979 0)
(-0.000226543 -0.00112394 0)
(-0.000227844 -0.00113818 0)
(-0.000229142 -0.00115249 0)
(-0.000230438 -0.00116689 0)
(-0.000231731 -0.00118137 0)
(-0.000233022 -0.00119593 0)
(-0.00023431 -0.00121056 0)
(-0.000235595 -0.00122528 0)
(-0.000236878 -0.00124008 0)
(-0.000238158 -0.00125496 0)
(-0.000239435 -0.00126992 0)
(-0.000240709 -0.00128496 0)
(-0.000241981 -0.00130008 0)
(-0.00024325 -0.00131528 0)
(-0.000244517 -0.00133055 0)
(-0.000245781 -0.00134591 0)
(-0.000247042 -0.00136135 0)
(-0.000248301 -0.00137686 0)
(-0.000249557 -0.00139245 0)
(-0.00025081 -0.00140812 0)
(-0.000252061 -0.00142387 0)
(-0.000253308 -0.0014397 0)
(-0.000254554 -0.00145561 0)
(-0.000255796 -0.00147159 0)
(-0.000257036 -0.00148765 0)
(-0.000258273 -0.00150379 0)
(-0.000259508 -0.00152 0)
(-0.00026074 -0.00153629 0)
(-0.000261969 -0.00155266 0)
(-0.000263196 -0.00156911 0)
(-0.00026442 -0.00158563 0)
(-0.000265641 -0.00160223 0)
(-0.00026686 -0.00161891 0)
(-0.000268076 -0.00163566 0)
(-0.000269289 -0.00165248 0)
(-0.0002705 -0.00166939 0)
(-0.000271708 -0.00168637 0)
(-0.000272913 -0.00170342 0)
(-0.000274116 -0.00172055 0)
(-0.000275316 -0.00173775 0)
(-0.000276513 -0.00175503 0)
(-0.000277708 -0.00177239 0)
(-0.0002789 -0.00178981 0)
(-0.000280089 -0.00180732 0)
(-0.000281276 -0.0018249 0)
(-0.00028246 -0.00184255 0)
(-0.000283641 -0.00186027 0)
(-0.00028482 -0.00187807 0)
(-0.000285996 -0.00189594 0)
(-0.000287169 -0.00191389 0)
(-0.00028834 -0.00193191 0)
(-0.000289508 -0.00195 0)
(-0.000290673 -0.00196817 0)
(-0.000291836 -0.0019864 0)
(-0.000292996 -0.00200471 0)
(-0.000294153 -0.0020231 0)
(-0.000295308 -0.00204155 0)
(-0.00029646 -0.00206008 0)
(-0.000297609 -0.00207868 0)
(-0.000298756 -0.00209735 0)
(-0.0002999 -0.00211609 0)
(-0.000301041 -0.00213491 0)
(-0.00030218 -0.00215379 0)
(-0.000303316 -0.00217275 0)
(-0.000304449 -0.00219177 0)
(-0.00030558 -0.00221087 0)
(-0.000306708 -0.00223004 0)
(-0.000307834 -0.00224928 0)
(-0.000308956 -0.00226859 0)
(-0.000310076 -0.00228797 0)
(-0.000311194 -0.00230742 0)
(-0.000312309 -0.00232694 0)
(-0.000313421 -0.00234653 0)
(-0.00031453 -0.00236618 0)
(-0.000315637 -0.00238591 0)
(-0.000316741 -0.00240571 0)
(-0.000317842 -0.00242557 0)
(-0.000318941 -0.00244551 0)
(-0.000320037 -0.00246551 0)
(-0.000321131 -0.00248558 0)
(-0.000322221 -0.00250572 0)
(-0.00032331 -0.00252593 0)
(-0.000324395 -0.0025462 0)
(-0.000325478 -0.00256654 0)
(-0.000326558 -0.00258696 0)
(-0.000327635 -0.00260743 0)
(-0.00032871 -0.00262798 0)
(-0.000329782 -0.00264859 0)
(-0.000330852 -0.00266927 0)
(-0.000331919 -0.00269002 0)
(-0.000332983 -0.00271083 0)
(-0.000334044 -0.00273171 0)
(-0.000335103 -0.00275265 0)
(-0.000336159 -0.00277367 0)
(-0.000337213 -0.00279474 0)
(-0.000338263 -0.00281589 0)
(-0.000339312 -0.00283709 0)
(-0.000340357 -0.00285837 0)
(-0.0003414 -0.00287971 0)
(-0.00034244 -0.00290111 0)
(-0.000343478 -0.00292258 0)
(-0.000344512 -0.00294412 0)
(-0.000345545 -0.00296572 0)
(-0.000346574 -0.00298738 0)
(-0.000347601 -0.00300911 0)
(-0.000348625 -0.0030309 0)
(-0.000349647 -0.00305275 0)
(-0.000350665 -0.00307467 0)
(-0.000351682 -0.00309666 0)
(-0.000352695 -0.0031187 0)
(-0.000353706 -0.00314081 0)
(-0.000354714 -0.00316298 0)
(-0.00035572 -0.00318522 0)
(-0.000356723 -0.00320752 0)
(-0.000357723 -0.00322988 0)
(-0.00035872 -0.0032523 0)
(-0.000359715 -0.00327479 0)
(-0.000360708 -0.00329734 0)
(-0.000361697 -0.00331995 0)
(-0.000362684 -0.00334262 0)
(-0.000363668 -0.00336535 0)
(-0.00036465 -0.00338814 0)
(-0.000365629 -0.003411 0)
(-0.000366605 -0.00343392 0)
(-0.000367578 -0.00345689 0)
(-0.000368549 -0.00347993 0)
(-0.000369518 -0.00350303 0)
(-0.000370483 -0.00352619 0)
(-0.000371446 -0.00354941 0)
(-0.000372406 -0.00357269 0)
(-0.000373364 -0.00359603 0)
(-0.000374319 -0.00361943 0)
(-0.000375271 -0.00364289 0)
(-0.000376221 -0.00366641 0)
(-0.000377168 -0.00368999 0)
(-0.000378112 -0.00371362 0)
(-0.000379054 -0.00373732 0)
(-0.000379992 -0.00376107 0)
(-0.000380929 -0.00378489 0)
(-0.000381862 -0.00380876 0)
(-0.000382793 -0.00383269 0)
(-0.000383722 -0.00385668 0)
(-0.000384647 -0.00388072 0)
(-0.00038557 -0.00390483 0)
(-0.000386491 -0.00392899 0)
(-0.000387408 -0.00395321 0)
(-0.000388323 -0.00397748 0)
(-0.000389235 -0.00400182 0)
(-0.000390145 -0.00402621 0)
(-0.000391052 -0.00405065 0)
(-0.000391956 -0.00407516 0)
(-0.000392858 -0.00409972 0)
(-0.000393757 -0.00412433 0)
(-0.000394653 -0.00414901 0)
(-0.000395547 -0.00417374 0)
(-0.000396438 -0.00419852 0)
(-0.000397326 -0.00422336 0)
(-0.000398212 -0.00424825 0)
(-0.000399095 -0.0042732 0)
(-0.000399975 -0.00429821 0)
(-0.000400853 -0.00432327 0)
(-0.000401728 -0.00434839 0)
(-0.0004026 -0.00437356 0)
(-0.00040347 -0.00439878 0)
(-0.000404337 -0.00442406 0)
(-0.000405201 -0.00444939 0)
(-0.000406063 -0.00447478 0)
(-0.000406922 -0.00450022 0)
(-0.000407779 -0.00452571 0)
(-0.000408632 -0.00455126 0)
(-0.000409483 -0.00457686 0)
(-0.000410332 -0.00460251 0)
(-0.000411177 -0.00462822 0)
(-0.000412021 -0.00465398 0)
(-0.000412861 -0.00467979 0)
(-0.000413699 -0.00470566 0)
(-0.000414534 -0.00473157 0)
(-0.000415366 -0.00475754 0)
(-0.000416196 -0.00478356 0)
(-0.000417023 -0.00480964 0)
(-0.000417847 -0.00483576 0)
(-0.000418669 -0.00486193 0)
(-0.000419488 -0.00488816 0)
(-0.000420305 -0.00491444 0)
(-0.000421118 -0.00494077 0)
(-0.000421929 -0.00496715 0)
(-0.000422738 -0.00499358 0)
(-0.000423544 -0.00502006 0)
(-0.000424347 -0.00504659 0)
(-0.000425147 -0.00507317 0)
(-0.000425945 -0.0050998 0)
(-0.00042674 -0.00512648 0)
(-0.000427532 -0.00515321 0)
(-0.000428322 -0.00517999 0)
(-0.000429109 -0.00520682 0)
(-0.000429894 -0.0052337 0)
(-0.000430676 -0.00526063 0)
(-0.000431455 -0.00528761 0)
(-0.000432231 -0.00531463 0)
(-0.000433005 -0.0053417 0)
(-0.000433776 -0.00536883 0)
(-0.000434545 -0.00539599 0)
(-0.00043531 -0.00542321 0)
(-0.000436074 -0.00545048 0)
(-0.000436834 -0.00547779 0)
(-0.000437592 -0.00550515 0)
(-0.000438347 -0.00553256 0)
(-0.000439099 -0.00556001 0)
(-0.000439849 -0.00558751 0)
(-0.000440596 -0.00561506 0)
(-0.000441341 -0.00564266 0)
(-0.000442083 -0.0056703 0)
(-0.000442822 -0.00569799 0)
(-0.000443558 -0.00572572 0)
(-0.000444292 -0.0057535 0)
(-0.000445023 -0.00578133 0)
(-0.000445752 -0.0058092 0)
(-0.000446478 -0.00583712 0)
(-0.000447201 -0.00586508 0)
(-0.000447922 -0.00589308 0)
(-0.000448639 -0.00592114 0)
(-0.000449355 -0.00594923 0)
(-0.000450067 -0.00597737 0)
(-0.000450777 -0.00600556 0)
(-0.000451484 -0.00603379 0)
(-0.000452189 -0.00606207 0)
(-0.000452891 -0.00609038 0)
(-0.00045359 -0.00611875 0)
(-0.000454286 -0.00614715 0)
(-0.00045498 -0.0061756 0)
(-0.000455672 -0.00620409 0)
(-0.00045636 -0.00623263 0)
(-0.000457046 -0.00626121 0)
(-0.000457729 -0.00628983 0)
(-0.00045841 -0.00631849 0)
(-0.000459088 -0.0063472 0)
(-0.000459763 -0.00637595 0)
(-0.000460436 -0.00640474 0)
(-0.000461105 -0.00643357 0)
(-0.000461773 -0.00646244 0)
(-0.000462437 -0.00649136 0)
(-0.000463099 -0.00652032 0)
(-0.000463758 -0.00654932 0)
(-0.000464415 -0.00657836 0)
(-0.000465069 -0.00660744 0)
(-0.00046572 -0.00663656 0)
(-0.000466369 -0.00666572 0)
(-0.000467015 -0.00669492 0)
(-0.000467658 -0.00672417 0)
(-0.000468299 -0.00675345 0)
(-0.000468937 -0.00678277 0)
(-0.000469572 -0.00681214 0)
(-0.000470205 -0.00684154 0)
(-0.000470835 -0.00687098 0)
(-0.000471462 -0.00690046 0)
(-0.000472087 -0.00692998 0)
(-0.000472708 -0.00695954 0)
(-0.000473328 -0.00698914 0)
(-0.000473944 -0.00701878 0)
(-0.000474558 -0.00704845 0)
(-0.00047517 -0.00707817 0)
(-0.000475778 -0.00710792 0)
(-0.000476384 -0.00713771 0)
(-0.000476988 -0.00716754 0)
(-0.000477588 -0.0071974 0)
(-0.000478186 -0.0072273 0)
(-0.000478782 -0.00725724 0)
(-0.000479374 -0.00728722 0)
(-0.000479964 -0.00731723 0)
(-0.000480552 -0.00734728 0)
(-0.000481136 -0.00737737 0)
(-0.000481718 -0.00740749 0)
(-0.000482298 -0.00743765 0)
(-0.000482874 -0.00746785 0)
(-0.000483448 -0.00749808 0)
(-0.00048402 -0.00752835 0)
(-0.000484589 -0.00755865 0)
(-0.000485155 -0.00758899 0)
(-0.000485718 -0.00761937 0)
(-0.000486279 -0.00764978 0)
(-0.000486837 -0.00768022 0)
(-0.000487392 -0.0077107 0)
(-0.000487945 -0.00774121 0)
(-0.000488495 -0.00777176 0)
(-0.000489042 -0.00780235 0)
(-0.000489587 -0.00783296 0)
(-0.000490129 -0.00786361 0)
(-0.000490668 -0.0078943 0)
(-0.000491205 -0.00792502 0)
(-0.000491739 -0.00795577 0)
(-0.000492271 -0.00798655 0)
(-0.000492799 -0.00801737 0)
(-0.000493325 -0.00804822 0)
(-0.000493849 -0.0080791 0)
(-0.00049437 -0.00811002 0)
(-0.000494888 -0.00814097 0)
(-0.000495403 -0.00817195 0)
(-0.000495916 -0.00820296 0)
(-0.000496426 -0.00823401 0)
(-0.000496933 -0.00826509 0)
(-0.000497438 -0.0082962 0)
(-0.00049794 -0.00832734 0)
(-0.00049844 -0.00835851 0)
(-0.000498937 -0.00838971 0)
(-0.000499431 -0.00842094 0)
(-0.000499922 -0.00845221 0)
(-0.000500411 -0.0084835 0)
(-0.000500897 -0.00851483 0)
(-0.00050138 -0.00854618 0)
(-0.000501861 -0.00857757 0)
(-0.000502339 -0.00860898 0)
(-0.000502815 -0.00864043 0)
(-0.000503288 -0.00867191 0)
(-0.000503758 -0.00870341 0)
(-0.000504225 -0.00873494 0)
(-0.00050469 -0.00876651 0)
(-0.000505152 -0.0087981 0)
(-0.000505612 -0.00882972 0)
(-0.000506069 -0.00886137 0)
(-0.000506523 -0.00889305 0)
(-0.000506974 -0.00892475 0)
(-0.000507423 -0.00895649 0)
(-0.000507869 -0.00898825 0)
(-0.000508313 -0.00902004 0)
(-0.000508754 -0.00905186 0)
(-0.000509192 -0.0090837 0)
(-0.000509627 -0.00911558 0)
(-0.00051006 -0.00914748 0)
(-0.00051049 -0.0091794 0)
(-0.000510918 -0.00921136 0)
(-0.000511343 -0.00924334 0)
(-0.000511765 -0.00927534 0)
(-0.000512184 -0.00930738 0)
(-0.000512601 -0.00933944 0)
(-0.000513016 -0.00937152 0)
(-0.000513427 -0.00940363 0)
(-0.000513836 -0.00943577 0)
(-0.000514242 -0.00946793 0)
(-0.000514646 -0.00950012 0)
(-0.000515047 -0.00953233 0)
(-0.000515445 -0.00956457 0)
(-0.00051584 -0.00959683 0)
(-0.000516233 -0.00962912 0)
(-0.000516624 -0.00966143 0)
(-0.000517011 -0.00969376 0)
(-0.000517396 -0.00972612 0)
(-0.000517778 -0.00975851 0)
(-0.000518158 -0.00979091 0)
(-0.000518535 -0.00982335 0)
(-0.000518909 -0.0098558 0)
(-0.000519281 -0.00988828 0)
(-0.00051965 -0.00992078 0)
(-0.000520016 -0.0099533 0)
(-0.000520379 -0.00998585 0)
(-0.00052074 -0.0100184 0)
(-0.000521099 -0.010051 0)
(-0.000521454 -0.0100836 0)
(-0.000521807 -0.0101163 0)
(-0.000522157 -0.0101489 0)
(-0.000522505 -0.0101816 0)
(-0.00052285 -0.0102143 0)
(-0.000523192 -0.010247 0)
(-0.000523532 -0.0102798 0)
(-0.000523869 -0.0103125 0)
(-0.000524203 -0.0103453 0)
(-0.000524535 -0.0103781 0)
(-0.000524864 -0.010411 0)
(-0.00052519 -0.0104438 0)
(-0.000525514 -0.0104767 0)
(-0.000525835 -0.0105096 0)
(-0.000526153 -0.0105425 0)
(-0.000526469 -0.0105754 0)
(-0.000526782 -0.0106084 0)
(-0.000527092 -0.0106413 0)
(-0.0005274 -0.0106743 0)
(-0.000527705 -0.0107073 0)
(-0.000528007 -0.0107403 0)
(-0.000528307 -0.0107734 0)
(-0.000528604 -0.0108064 0)
(-0.000528898 -0.0108395 0)
(-0.00052919 -0.0108726 0)
(-0.000529479 -0.0109057 0)
(-0.000529765 -0.0109389 0)
(-0.000530049 -0.010972 0)
(-0.00053033 -0.0110052 0)
(-0.000530608 -0.0110384 0)
(-0.000530884 -0.0110716 0)
(-0.000531157 -0.0111048 0)
(-0.000531427 -0.0111381 0)
(-0.000531695 -0.0111713 0)
(-0.00053196 -0.0112046 0)
(-0.000532222 -0.0112379 0)
(-0.000532482 -0.0112712 0)
(-0.000532739 -0.0113045 0)
(-0.000532994 -0.0113379 0)
(-0.000533245 -0.0113712 0)
(-0.000533494 -0.0114046 0)
(-0.000533741 -0.011438 0)
(-0.000533984 -0.0114714 0)
(-0.000534225 -0.0115048 0)
(-0.000534464 -0.0115382 0)
(-0.0005347 -0.0115717 0)
(-0.000534933 -0.0116051 0)
(-0.000535163 -0.0116386 0)
(-0.000535391 -0.0116721 0)
(-0.000535616 -0.0117056 0)
(-0.000535838 -0.0117391 0)
(-0.000536058 -0.0117726 0)
(-0.000536275 -0.0118062 0)
(-0.00053649 -0.0118397 0)
(-0.000536701 -0.0118733 0)
(-0.000536911 -0.0119069 0)
(-0.000537117 -0.0119405 0)
(-0.000537321 -0.0119741 0)
(-0.000537522 -0.0120077 0)
(-0.00053772 -0.0120414 0)
(-0.000537916 -0.012075 0)
(-0.000538109 -0.0121087 0)
(-0.0005383 -0.0121423 0)
(-0.000538488 -0.012176 0)
(-0.000538673 -0.0122097 0)
(-0.000538855 -0.0122434 0)
(-0.000539035 -0.0122772 0)
(-0.000539212 -0.0123109 0)
(-0.000539387 -0.0123446 0)
(-0.000539558 -0.0123784 0)
(-0.000539728 -0.0124121 0)
(-0.000539894 -0.0124459 0)
(-0.000540058 -0.0124797 0)
(-0.000540219 -0.0125135 0)
(-0.000540378 -0.0125473 0)
(-0.000540533 -0.0125811 0)
(-0.000540687 -0.0126149 0)
(-0.000540837 -0.0126488 0)
(-0.000540985 -0.0126826 0)
(-0.00054113 -0.0127164 0)
(-0.000541273 -0.0127503 0)
(-0.000541412 -0.0127842 0)
(-0.00054155 -0.0128181 0)
(-0.000541684 -0.0128519 0)
(-0.000541816 -0.0128858 0)
(-0.000541945 -0.0129197 0)
(-0.000542072 -0.0129536 0)
(-0.000542196 -0.0129876 0)
(-0.000542317 -0.0130215 0)
(-0.000542435 -0.0130554 0)
(-0.000542551 -0.0130894 0)
(-0.000542664 -0.0131233 0)
(-0.000542775 -0.0131573 0)
(-0.000542883 -0.0131912 0)
(-0.000542988 -0.0132252 0)
(-0.000543091 -0.0132592 0)
(-0.000543191 -0.0132931 0)
(-0.000543288 -0.0133271 0)
(-0.000543382 -0.0133611 0)
(-0.000543474 -0.0133951 0)
(-0.000543563 -0.0134291 0)
(-0.00054365 -0.0134631 0)
(-0.000543734 -0.0134972 0)
(-0.000543815 -0.0135312 0)
(-0.000543894 -0.0135652 0)
(-0.00054397 -0.0135992 0)
(-0.000544043 -0.0136333 0)
(-0.000544114 -0.0136673 0)
(-0.000544182 -0.0137014 0)
(-0.000544247 -0.0137354 0)
(-0.00054431 -0.0137695 0)
(-0.00054437 -0.0138035 0)
(-0.000544427 -0.0138376 0)
(-0.000544482 -0.0138716 0)
(-0.000544534 -0.0139057 0)
(-0.000544584 -0.0139398 0)
(-0.000544631 -0.0139738 0)
(-0.000544676 -0.0140079 0)
(-0.000544718 -0.014042 0)
(-0.000544758 -0.0140761 0)
(-0.000544795 -0.0141102 0)
(-0.000544831 -0.0141442 0)
(-0.000544864 -0.0141783 0)
(-0.000544895 -0.0142124 0)
(-0.000544924 -0.0142465 0)
(-0.000544951 -0.0142806 0)
(-0.000544977 -0.0143147 0)
(-0.000545002 -0.0143488 0)
(-0.000545025 -0.0143829 0)
(-0.000545048 -0.014417 0)
(-0.00054507 -0.0144511 0)
(-0.000545093 -0.0144852 0)
(-0.000545117 -0.0145194 0)
(-0.000545134 -0.0145536 0)
(-7.44393e-23 -7.42304e-23 0)
(-1.79712e-06 -1.48367e-06 0)
(-3.49165e-06 -2.50426e-06 0)
(-5.10184e-06 -3.31529e-06 0)
(-6.67451e-06 -4.05428e-06 0)
(-8.23438e-06 -4.78721e-06 0)
(-9.79305e-06 -5.55099e-06 0)
(-1.13556e-05 -6.36846e-06 0)
(-1.2924e-05 -7.25465e-06 0)
(-1.44986e-05 -8.21982e-06 0)
(-1.60789e-05 -9.27118e-06 0)
(-1.76642e-05 -1.04138e-05 0)
(-1.92536e-05 -1.16514e-05 0)
(-2.08463e-05 -1.29866e-05 0)
(-2.24413e-05 -1.44213e-05 0)
(-2.40378e-05 -1.59567e-05 0)
(-2.56352e-05 -1.75939e-05 0)
(-2.72329e-05 -1.93333e-05 0)
(-2.88303e-05 -2.11754e-05 0)
(-3.0427e-05 -2.31205e-05 0)
(-3.20227e-05 -2.51686e-05 0)
(-3.36171e-05 -2.73199e-05 0)
(-3.52098e-05 -2.95741e-05 0)
(-3.68007e-05 -3.19313e-05 0)
(-3.83896e-05 -3.43913e-05 0)
(-3.99765e-05 -3.69539e-05 0)
(-4.15611e-05 -3.96191e-05 0)
(-4.31434e-05 -4.23867e-05 0)
(-4.47234e-05 -4.52564e-05 0)
(-4.63009e-05 -4.82282e-05 0)
(-4.7876e-05 -5.13017e-05 0)
(-4.94486e-05 -5.44769e-05 0)
(-5.10186e-05 -5.77536e-05 0)
(-5.25862e-05 -6.11316e-05 0)
(-5.41511e-05 -6.46106e-05 0)
(-5.57136e-05 -6.81906e-05 0)
(-5.72734e-05 -7.18714e-05 0)
(-5.88307e-05 -7.56527e-05 0)
(-6.03854e-05 -7.95345e-05 0)
(-6.19376e-05 -8.35165e-05 0)
(-6.34871e-05 -8.75986e-05 0)
(-6.50341e-05 -9.17805e-05 0)
(-6.65785e-05 -9.60622e-05 0)
(-6.81203e-05 -0.000100443 0)
(-6.96596e-05 -0.000104924 0)
(-7.11962e-05 -0.000109504 0)
(-7.27303e-05 -0.000114183 0)
(-7.42618e-05 -0.000118961 0)
(-7.57907e-05 -0.000123837 0)
(-7.7317e-05 -0.000128812 0)
(-7.88407e-05 -0.000133886 0)
(-8.03619e-05 -0.000139058 0)
(-8.18805e-05 -0.000144327 0)
(-8.33965e-05 -0.000149695 0)
(-8.49099e-05 -0.000155161 0)
(-8.64207e-05 -0.000160724 0)
(-8.7929e-05 -0.000166384 0)
(-8.94347e-05 -0.000172141 0)
(-9.09378e-05 -0.000177996 0)
(-9.24383e-05 -0.000183948 0)
(-9.39362e-05 -0.000189996 0)
(-9.54316e-05 -0.000196141 0)
(-9.69244e-05 -0.000202382 0)
(-9.84145e-05 -0.000208719 0)
(-9.99022e-05 -0.000215153 0)
(-0.000101387 -0.000221682 0)
(-0.00010287 -0.000228307 0)
(-0.00010435 -0.000235028 0)
(-0.000105827 -0.000241844 0)
(-0.000107302 -0.000248755 0)
(-0.000108774 -0.000255761 0)
(-0.000110243 -0.000262863 0)
(-0.00011171 -0.000270059 0)
(-0.000113175 -0.000277349 0)
(-0.000114636 -0.000284734 0)
(-0.000116096 -0.000292213 0)
(-0.000117552 -0.000299786 0)
(-0.000119006 -0.000307453 0)
(-0.000120458 -0.000315214 0)
(-0.000121907 -0.000323068 0)
(-0.000123353 -0.000331016 0)
(-0.000124797 -0.000339057 0)
(-0.000126238 -0.000347191 0)
(-0.000127677 -0.000355418 0)
(-0.000129113 -0.000363738 0)
(-0.000130546 -0.00037215 0)
(-0.000131977 -0.000380655 0)
(-0.000133405 -0.000389252 0)
(-0.000134831 -0.000397941 0)
(-0.000136254 -0.000406721 0)
(-0.000137674 -0.000415594 0)
(-0.000139092 -0.000424558 0)
(-0.000140508 -0.000433614 0)
(-0.00014192 -0.00044276 0)
(-0.000143331 -0.000451998 0)
(-0.000144738 -0.000461327 0)
(-0.000146143 -0.000470746 0)
(-0.000147546 -0.000480256 0)
(-0.000148946 -0.000489857 0)
(-0.000150343 -0.000499547 0)
(-0.000151738 -0.000509328 0)
(-0.00015313 -0.000519199 0)
(-0.000154519 -0.000529159 0)
(-0.000155906 -0.000539209 0)
(-0.000157291 -0.000549348 0)
(-0.000158673 -0.000559577 0)
(-0.000160052 -0.000569894 0)
(-0.000161428 -0.000580301 0)
(-0.000162803 -0.000590796 0)
(-0.000164174 -0.00060138 0)
(-0.000165543 -0.000612052 0)
(-0.000166909 -0.000622812 0)
(-0.000168273 -0.000633661 0)
(-0.000169634 -0.000644597 0)
(-0.000170993 -0.000655621 0)
(-0.000172349 -0.000666733 0)
(-0.000173702 -0.000677932 0)
(-0.000175053 -0.000689218 0)
(-0.000176401 -0.000700592 0)
(-0.000177747 -0.000712052 0)
(-0.00017909 -0.000723599 0)
(-0.000180431 -0.000735233 0)
(-0.000181769 -0.000746953 0)
(-0.000183104 -0.000758759 0)
(-0.000184437 -0.000770651 0)
(-0.000185767 -0.000782629 0)
(-0.000187095 -0.000794693 0)
(-0.00018842 -0.000806843 0)
(-0.000189742 -0.000819078 0)
(-0.000191062 -0.000831398 0)
(-0.000192379 -0.000843803 0)
(-0.000193694 -0.000856293 0)
(-0.000195006 -0.000868868 0)
(-0.000196316 -0.000881528 0)
(-0.000197623 -0.000894272 0)
(-0.000198927 -0.0009071 0)
(-0.000200229 -0.000920012 0)
(-0.000201528 -0.000933008 0)
(-0.000202825 -0.000946088 0)
(-0.000204119 -0.000959251 0)
(-0.00020541 -0.000972498 0)
(-0.000206699 -0.000985828 0)
(-0.000207986 -0.000999241 0)
(-0.000209269 -0.00101274 0)
(-0.000210551 -0.00102632 0)
(-0.000211829 -0.00103998 0)
(-0.000213105 -0.00105372 0)
(-0.000214379 -0.00106755 0)
(-0.00021565 -0.00108145 0)
(-0.000216918 -0.00109544 0)
(-0.000218184 -0.00110952 0)
(-0.000219447 -0.00112367 0)
(-0.000220707 -0.0011379 0)
(-0.000221965 -0.00115222 0)
(-0.000223221 -0.00116662 0)
(-0.000224473 -0.0011811 0)
(-0.000225724 -0.00119565 0)
(-0.000226971 -0.00121029 0)
(-0.000228216 -0.00122501 0)
(-0.000229459 -0.00123981 0)
(-0.000230699 -0.00125469 0)
(-0.000231936 -0.00126965 0)
(-0.000233171 -0.00128469 0)
(-0.000234403 -0.00129981 0)
(-0.000235632 -0.00131501 0)
(-0.000236859 -0.00133029 0)
(-0.000238084 -0.00134564 0)
(-0.000239306 -0.00136108 0)
(-0.000240525 -0.00137659 0)
(-0.000241742 -0.00139219 0)
(-0.000242956 -0.00140786 0)
(-0.000244167 -0.00142361 0)
(-0.000245376 -0.00143944 0)
(-0.000246582 -0.00145534 0)
(-0.000247786 -0.00147133 0)
(-0.000248987 -0.00148739 0)
(-0.000250186 -0.00150353 0)
(-0.000251382 -0.00151974 0)
(-0.000252575 -0.00153603 0)
(-0.000253766 -0.0015524 0)
(-0.000254955 -0.00156885 0)
(-0.00025614 -0.00158537 0)
(-0.000257323 -0.00160197 0)
(-0.000258504 -0.00161865 0)
(-0.000259682 -0.0016354 0)
(-0.000260857 -0.00165223 0)
(-0.00026203 -0.00166913 0)
(-0.0002632 -0.00168611 0)
(-0.000264368 -0.00170317 0)
(-0.000265533 -0.0017203 0)
(-0.000266696 -0.0017375 0)
(-0.000267855 -0.00175478 0)
(-0.000269013 -0.00177213 0)
(-0.000270168 -0.00178956 0)
(-0.00027132 -0.00180707 0)
(-0.000272469 -0.00182465 0)
(-0.000273616 -0.0018423 0)
(-0.000274761 -0.00186002 0)
(-0.000275903 -0.00187782 0)
(-0.000277042 -0.0018957 0)
(-0.000278178 -0.00191364 0)
(-0.000279313 -0.00193166 0)
(-0.000280444 -0.00194975 0)
(-0.000281573 -0.00196792 0)
(-0.000282699 -0.00198616 0)
(-0.000283823 -0.00200447 0)
(-0.000284944 -0.00202285 0)
(-0.000286063 -0.00204131 0)
(-0.000287179 -0.00205984 0)
(-0.000288292 -0.00207844 0)
(-0.000289403 -0.00209711 0)
(-0.000290512 -0.00211585 0)
(-0.000291617 -0.00213467 0)
(-0.00029272 -0.00215355 0)
(-0.000293821 -0.00217251 0)
(-0.000294919 -0.00219154 0)
(-0.000296014 -0.00221063 0)
(-0.000297107 -0.0022298 0)
(-0.000298197 -0.00224904 0)
(-0.000299285 -0.00226835 0)
(-0.00030037 -0.00228773 0)
(-0.000301453 -0.00230718 0)
(-0.000302533 -0.0023267 0)
(-0.00030361 -0.00234629 0)
(-0.000304685 -0.00236595 0)
(-0.000305757 -0.00238568 0)
(-0.000306826 -0.00240547 0)
(-0.000307893 -0.00242534 0)
(-0.000308958 -0.00244527 0)
(-0.00031002 -0.00246528 0)
(-0.000311079 -0.00248535 0)
(-0.000312136 -0.00250549 0)
(-0.00031319 -0.0025257 0)
(-0.000314241 -0.00254597 0)
(-0.00031529 -0.00256632 0)
(-0.000316337 -0.00258673 0)
(-0.00031738 -0.00260721 0)
(-0.000318422 -0.00262775 0)
(-0.00031946 -0.00264837 0)
(-0.000320496 -0.00266905 0)
(-0.00032153 -0.00268979 0)
(-0.000322561 -0.00271061 0)
(-0.000323589 -0.00273149 0)
(-0.000324615 -0.00275243 0)
(-0.000325638 -0.00277344 0)
(-0.000326658 -0.00279452 0)
(-0.000327676 -0.00281566 0)
(-0.000328692 -0.00283687 0)
(-0.000329704 -0.00285815 0)
(-0.000330715 -0.00287949 0)
(-0.000331722 -0.00290089 0)
(-0.000332727 -0.00292236 0)
(-0.00033373 -0.0029439 0)
(-0.00033473 -0.0029655 0)
(-0.000335727 -0.00298716 0)
(-0.000336722 -0.00300889 0)
(-0.000337714 -0.00303068 0)
(-0.000338704 -0.00305254 0)
(-0.000339691 -0.00307446 0)
(-0.000340675 -0.00309644 0)
(-0.000341657 -0.00311849 0)
(-0.000342636 -0.0031406 0)
(-0.000343613 -0.00316277 0)
(-0.000344587 -0.00318501 0)
(-0.000345559 -0.00320731 0)
(-0.000346528 -0.00322967 0)
(-0.000347494 -0.00325209 0)
(-0.000348458 -0.00327458 0)
(-0.000349419 -0.00329713 0)
(-0.000350378 -0.00331974 0)
(-0.000351334 -0.00334241 0)
(-0.000352287 -0.00336514 0)
(-0.000353238 -0.00338794 0)
(-0.000354186 -0.00341079 0)
(-0.000355132 -0.00343371 0)
(-0.000356075 -0.00345669 0)
(-0.000357016 -0.00347973 0)
(-0.000357954 -0.00350283 0)
(-0.000358889 -0.00352599 0)
(-0.000359822 -0.00354921 0)
(-0.000360752 -0.00357249 0)
(-0.00036168 -0.00359583 0)
(-0.000362605 -0.00361923 0)
(-0.000363527 -0.00364269 0)
(-0.000364447 -0.00366621 0)
(-0.000365365 -0.00368979 0)
(-0.000366279 -0.00371343 0)
(-0.000367192 -0.00373712 0)
(-0.000368101 -0.00376088 0)
(-0.000369008 -0.00378469 0)
(-0.000369913 -0.00380856 0)
(-0.000370815 -0.00383249 0)
(-0.000371714 -0.00385648 0)
(-0.000372611 -0.00388053 0)
(-0.000373505 -0.00390463 0)
(-0.000374396 -0.0039288 0)
(-0.000375285 -0.00395301 0)
(-0.000376172 -0.00397729 0)
(-0.000377055 -0.00400163 0)
(-0.000377937 -0.00402602 0)
(-0.000378815 -0.00405046 0)
(-0.000379691 -0.00407497 0)
(-0.000380565 -0.00409953 0)
(-0.000381436 -0.00412415 0)
(-0.000382304 -0.00414882 0)
(-0.00038317 -0.00417355 0)
(-0.000384033 -0.00419833 0)
(-0.000384893 -0.00422317 0)
(-0.000385751 -0.00424807 0)
(-0.000386607 -0.00427302 0)
(-0.00038746 -0.00429802 0)
(-0.00038831 -0.00432309 0)
(-0.000389158 -0.0043482 0)
(-0.000390003 -0.00437337 0)
(-0.000390845 -0.0043986 0)
(-0.000391685 -0.00442388 0)
(-0.000392522 -0.00444921 0)
(-0.000393357 -0.0044746 0)
(-0.000394189 -0.00450004 0)
(-0.000395019 -0.00452553 0)
(-0.000395846 -0.00455108 0)
(-0.000396671 -0.00457668 0)
(-0.000397492 -0.00460233 0)
(-0.000398312 -0.00462804 0)
(-0.000399128 -0.0046538 0)
(-0.000399943 -0.00467961 0)
(-0.000400754 -0.00470548 0)
(-0.000401563 -0.0047314 0)
(-0.000402369 -0.00475737 0)
(-0.000403173 -0.00478339 0)
(-0.000403974 -0.00480946 0)
(-0.000404773 -0.00483559 0)
(-0.000405569 -0.00486176 0)
(-0.000406363 -0.00488799 0)
(-0.000407154 -0.00491427 0)
(-0.000407942 -0.0049406 0)
(-0.000408728 -0.00496698 0)
(-0.000409511 -0.00499341 0)
(-0.000410291 -0.00501989 0)
(-0.000411069 -0.00504642 0)
(-0.000411845 -0.005073 0)
(-0.000412618 -0.00509964 0)
(-0.000413388 -0.00512632 0)
(-0.000414156 -0.00515305 0)
(-0.000414921 -0.00517983 0)
(-0.000415683 -0.00520666 0)
(-0.000416443 -0.00523354 0)
(-0.000417201 -0.00526047 0)
(-0.000417955 -0.00528744 0)
(-0.000418707 -0.00531447 0)
(-0.000419457 -0.00534154 0)
(-0.000420204 -0.00536866 0)
(-0.000420949 -0.00539583 0)
(-0.00042169 -0.00542305 0)
(-0.00042243 -0.00545032 0)
(-0.000423166 -0.00547763 0)
(-0.000423901 -0.00550499 0)
(-0.000424632 -0.0055324 0)
(-0.000425361 -0.00555985 0)
(-0.000426088 -0.00558736 0)
(-0.000426811 -0.00561491 0)
(-0.000427533 -0.0056425 0)
(-0.000428251 -0.00567014 0)
(-0.000428967 -0.00569783 0)
(-0.000429681 -0.00572557 0)
(-0.000430392 -0.00575335 0)