/*--------------------------------*- C++ -*----------------------------------*\
| =========                 |                                                 |
| \\      /  F ield         | foam-extend: Open Source CFD                    |
|  \\    /   O peration     | Version:     4.0                                |
|   \\  /    A nd           | Web:         http://www.foam-extend.org         |
|    \\/     M anipulation  |                                                 |
\*---------------------------------------------------------------------------*/
FoamFile
{
    version     2.0;
    format      ascii;
    class       volScalarField;
    location    "1";
    object      sigmaHyd;
}
// * * * * * * * * * * * * * * * * * * * * * * * * * * * * * * * * * * * * * //

dimensions      [1 -1 -2 0 0 0 0];

internalField   nonuniform List<scalar> 
40960
(
-6.87851e+07
-5.08718e+07
-4.84763e+07
-4.77439e+07
-4.76653e+07
-4.78323e+07
-4.80867e+07
-4.83571e+07
-4.86106e+07
-4.8833e+07
-4.90192e+07
-4.91688e+07
-4.92841e+07
-4.93682e+07
-4.94248e+07
-4.94576e+07
-4.947e+07
-4.94651e+07
-4.94458e+07
-4.94145e+07
-4.93733e+07
-4.93241e+07
-4.92683e+07
-4.92072e+07
-4.9142e+07
-4.90733e+07
-4.9002e+07
-4.89286e+07
-4.88535e+07
-4.87772e+07
-4.87e+07
-4.8622e+07
-4.85434e+07
-4.84644e+07
-4.83852e+07
-4.83057e+07
-4.8226e+07
-4.81462e+07
-4.80664e+07
-4.79865e+07
-4.79065e+07
-4.78266e+07
-4.77466e+07
-4.76666e+07
-4.75867e+07
-4.75067e+07
-4.74267e+07
-4.73468e+07
-4.72668e+07
-4.71869e+07
-4.7107e+07
-4.7027e+07
-4.69471e+07
-4.68672e+07
-4.67872e+07
-4.67073e+07
-4.66274e+07
-4.65475e+07
-4.64676e+07
-4.63877e+07
-4.63077e+07
-4.62278e+07
-4.61479e+07
-4.6068e+07
-4.59881e+07
-4.59082e+07
-4.58283e+07
-4.57484e+07
-4.56685e+07
-4.55886e+07
-4.55086e+07
-4.54287e+07
-4.53488e+07
-4.52689e+07
-4.5189e+07
-4.51091e+07
-4.50292e+07
-4.49493e+07
-4.48694e+07
-4.47895e+07
-4.47096e+07
-4.46296e+07
-4.45497e+07
-4.44698e+07
-4.43899e+07
-4.431e+07
-4.42301e+07
-4.41502e+07
-4.40703e+07
-4.39904e+07
-4.39105e+07
-4.38306e+07
-4.37506e+07
-4.36707e+07
-4.35908e+07
-4.35109e+07
-4.3431e+07
-4.33511e+07
-4.32712e+07
-4.31913e+07
-4.31114e+07
-4.30315e+07
-4.29515e+07
-4.28716e+07
-4.27917e+07
-4.27118e+07
-4.26319e+07
-4.2552e+07
-4.24721e+07
-4.23922e+07
-4.23123e+07
-4.22324e+07
-4.21525e+07
-4.20725e+07
-4.19926e+07
-4.19127e+07
-4.18328e+07
-4.17529e+07
-4.1673e+07
-4.15931e+07
-4.15132e+07
-4.14333e+07
-4.13534e+07
-4.12735e+07
-4.11935e+07
-4.11136e+07
-4.10337e+07
-4.09538e+07
-4.08739e+07
-4.0794e+07
-4.07141e+07
-4.06342e+07
-4.05543e+07
-4.04744e+07
-4.03945e+07
-4.03145e+07
-4.02346e+07
-4.01547e+07
-4.00748e+07
-3.99949e+07
-3.9915e+07
-3.98351e+07
-3.97552e+07
-3.96753e+07
-3.95954e+07
-3.95155e+07
-3.94355e+07
-3.93556e+07
-3.92757e+07
-3.91958e+07
-3.91159e+07
-3.9036e+07
-3.89561e+07
-3.88762e+07
-3.87963e+07
-3.87164e+07
-3.86364e+07
-3.85565e+07
-3.84766e+07
-3.83967e+07
-3.83168e+07
-3.82369e+07
-3.8157e+07
-3.80771e+07
-3.79972e+07
-3.79173e+07
-3.78374e+07
-3.77574e+07
-3.76775e+07
-3.75976e+07
-3.75177e+07
-3.74378e+07
-3.73579e+07
-3.7278e+07
-3.71981e+07
-3.71182e+07
-3.70383e+07
-3.69584e+07
-3.68784e+07
-3.67985e+07
-3.67186e+07
-3.66387e+07
-3.65588e+07
-3.64789e+07
-3.6399e+07
-3.63191e+07
-3.62392e+07
-3.61593e+07
-3.60794e+07
-3.59994e+07
-3.59195e+07
-3.58396e+07
-3.57597e+07
-3.56798e+07
-3.55999e+07
-3.552e+07
-3.54401e+07
-3.53602e+07
-3.52803e+07
-3.52004e+07
-3.51204e+07
-3.50405e+07
-3.49606e+07
-3.48807e+07
-3.48008e+07
-3.47209e+07
-3.4641e+07
-3.45611e+07
-3.44812e+07
-3.44013e+07
-3.43213e+07
-3.42414e+07
-3.41615e+07
-3.40816e+07
-3.40017e+07
-3.39218e+07
-3.38419e+07
-3.3762e+07
-3.36821e+07
-3.36022e+07
-3.35223e+07
-3.34423e+07
-3.33624e+07
-3.32825e+07
-3.32026e+07
-3.31227e+07
-3.30428e+07
-3.29629e+07
-3.2883e+07
-3.28031e+07
-3.27232e+07
-3.26433e+07
-3.25633e+07
-3.24834e+07
-3.24035e+07
-3.23236e+07
-3.22437e+07
-3.21638e+07
-3.20839e+07
-3.2004e+07
-3.19241e+07
-3.18442e+07
-3.17643e+07
-3.16843e+07
-3.16044e+07
-3.15245e+07
-3.14446e+07
-3.13647e+07
-3.12848e+07
-3.12049e+07
-3.1125e+07
-3.10451e+07
-3.09652e+07
-3.08853e+07
-3.08053e+07
-3.07254e+07
-3.06455e+07
-3.05656e+07
-3.04857e+07
-3.04058e+07
-3.03259e+07
-3.0246e+07
-3.01661e+07
-3.00862e+07
-3.00062e+07
-2.99263e+07
-2.98464e+07
-2.97665e+07
-2.96866e+07
-2.96067e+07
-2.95268e+07
-2.94469e+07
-2.9367e+07
-2.92871e+07
-2.92072e+07
-2.91272e+07
-2.90473e+07
-2.89674e+07
-2.88875e+07
-2.88076e+07
-2.87277e+07
-2.86478e+07
-2.85679e+07
-2.8488e+07
-2.84081e+07
-2.83282e+07
-2.82482e+07
-2.81683e+07
-2.80884e+07
-2.80085e+07
-2.79286e+07
-2.78487e+07
-2.77688e+07
-2.76889e+07
-2.7609e+07
-2.75291e+07
-2.74492e+07
-2.73692e+07
-2.72893e+07
-2.72094e+07
-2.71295e+07
-2.70496e+07
-2.69697e+07
-2.68898e+07
-2.68099e+07
-2.673e+07
-2.66501e+07
-2.65702e+07
-2.64902e+07
-2.64103e+07
-2.63304e+07
-2.62505e+07
-2.61706e+07
-2.60907e+07
-2.60108e+07
-2.59309e+07
-2.5851e+07
-2.57711e+07
-2.56911e+07
-2.56112e+07
-2.55313e+07
-2.54514e+07
-2.53715e+07
-2.52916e+07
-2.52117e+07
-2.51318e+07
-2.50519e+07
-2.4972e+07
-2.48921e+07
-2.48121e+07
-2.47322e+07
-2.46523e+07
-2.45724e+07
-2.44925e+07
-2.44126e+07
-2.43327e+07
-2.42528e+07
-2.41729e+07
-2.4093e+07
-2.40131e+07
-2.39331e+07
-2.38532e+07
-2.37733e+07
-2.36934e+07
-2.36135e+07
-2.35336e+07
-2.34537e+07
-2.33738e+07
-2.32939e+07
-2.3214e+07
-2.31341e+07
-2.30541e+07
-2.29742e+07
-2.28943e+07
-2.28144e+07
-2.27345e+07
-2.26546e+07
-2.25747e+07
-2.24948e+07
-2.24149e+07
-2.2335e+07
-2.22551e+07
-2.21751e+07
-2.20952e+07
-2.20153e+07
-2.19354e+07
-2.18555e+07
-2.17756e+07
-2.16957e+07
-2.16158e+07
-2.15359e+07
-2.1456e+07
-2.1376e+07
-2.12961e+07
-2.12162e+07
-2.11363e+07
-2.10564e+07
-2.09765e+07
-2.08966e+07
-2.08167e+07
-2.07368e+07
-2.06569e+07
-2.0577e+07
-2.0497e+07
-2.04171e+07
-2.03372e+07
-2.02573e+07
-2.01774e+07
-2.00975e+07
-2.00176e+07
-1.99377e+07
-1.98578e+07
-1.97779e+07
-1.9698e+07
-1.9618e+07
-1.95381e+07
-1.94582e+07
-1.93783e+07
-1.92984e+07
-1.92185e+07
-1.91386e+07
-1.90587e+07
-1.89788e+07
-1.88989e+07
-1.8819e+07
-1.8739e+07
-1.86591e+07
-1.85792e+07
-1.84993e+07
-1.84194e+07
-1.83395e+07
-1.82596e+07
-1.81797e+07
-1.80998e+07
-1.80199e+07
-1.794e+07
-1.786e+07
-1.77801e+07
-1.77002e+07
-1.76203e+07
-1.75404e+07
-1.74605e+07
-1.73806e+07
-1.73007e+07
-1.72208e+07
-1.71409e+07
-1.70609e+07
-1.6981e+07
-1.69011e+07
-1.68212e+07
-1.67413e+07
-1.66614e+07
-1.65815e+07
-1.65016e+07
-1.64217e+07
-1.63418e+07
-1.62619e+07
-1.61819e+07
-1.6102e+07
-1.60221e+07
-1.59422e+07
-1.58623e+07
-1.57824e+07
-1.57025e+07
-1.56226e+07
-1.55427e+07
-1.54628e+07
-1.53829e+07
-1.53029e+07
-1.5223e+07
-1.51431e+07
-1.50632e+07
-1.49833e+07
-1.49034e+07
-1.48235e+07
-1.47436e+07
-1.46637e+07
-1.45838e+07
-1.45039e+07
-1.44239e+07
-1.4344e+07
-1.42641e+07
-1.41842e+07
-1.41043e+07
-1.40244e+07
-1.39445e+07
-1.38646e+07
-1.37847e+07
-1.37048e+07
-1.36249e+07
-1.35449e+07
-1.3465e+07
-1.33851e+07
-1.33052e+07
-1.32253e+07
-1.31454e+07
-1.30655e+07
-1.29856e+07
-1.29057e+07
-1.28258e+07
-1.27458e+07
-1.26659e+07
-1.2586e+07
-1.25061e+07
-1.24262e+07
-1.23463e+07
-1.22664e+07
-1.21865e+07
-1.21066e+07
-1.20267e+07
-1.19468e+07
-1.18668e+07
-1.17869e+07
-1.1707e+07
-1.16271e+07
-1.15472e+07
-1.14673e+07
-1.13874e+07
-1.13075e+07
-1.12276e+07
-1.11477e+07
-1.10678e+07
-1.09878e+07
-1.09079e+07
-1.0828e+07
-1.07481e+07
-1.06682e+07
-1.05883e+07
-1.05084e+07
-1.04285e+07
-1.03486e+07
-1.02687e+07
-1.01888e+07
-1.01088e+07
-1.00289e+07
-9.94902e+06
-9.86912e+06
-9.78921e+06
-9.7093e+06
-9.62939e+06
-9.54948e+06
-9.46957e+06
-9.38966e+06
-9.30975e+06
-9.22984e+06
-9.14993e+06
-9.07002e+06
-8.99011e+06
-8.9102e+06
-8.83029e+06
-8.75039e+06
-8.67048e+06
-8.59057e+06
-8.51066e+06
-8.43075e+06
-8.35084e+06
-8.27093e+06
-8.19102e+06
-8.11111e+06
-8.0312e+06
-7.95129e+06
-7.87138e+06
-7.79147e+06
-7.71157e+06
-7.63166e+06
-7.55175e+06
-7.47184e+06
-7.39193e+06
-7.31202e+06
-7.23211e+06
-7.1522e+06
-7.07229e+06
-6.99238e+06
-6.91247e+06
-6.83256e+06
-6.75265e+06
-6.67274e+06
-6.59284e+06
-6.51293e+06
-6.43302e+06
-6.35311e+06
-6.2732e+06
-6.19329e+06
-6.11338e+06
-6.03347e+06
-5.95356e+06
-5.87365e+06
-5.79374e+06
-5.71383e+06
-5.63392e+06
-5.55401e+06
-5.47411e+06
-5.3942e+06
-5.31429e+06
-5.23438e+06
-5.15447e+06
-5.07456e+06
-4.99465e+06
-4.91474e+06
-4.83483e+06
-4.75492e+06
-4.67501e+06
-4.5951e+06
-4.51519e+06
-4.43528e+06
-4.35537e+06
-4.27546e+06
-4.19555e+06
-4.11564e+06
-4.03573e+06
-3.95582e+06
-3.87591e+06
-3.796e+06
-3.71608e+06
-3.63617e+06
-3.55625e+06
-3.47634e+06
-3.39642e+06
-3.31651e+06
-3.23659e+06
-3.15667e+06
-3.07676e+06
-2.99684e+06
-2.91693e+06
-2.83702e+06
-2.75711e+06
-2.67722e+06
-2.59734e+06
-2.51748e+06
-2.43764e+06
-2.35784e+06
-2.27809e+06
-2.19841e+06
-2.11882e+06
-2.03935e+06
-1.96004e+06
-1.88092e+06
-1.80206e+06
-1.72353e+06
-1.64542e+06
-1.56783e+06
-1.49091e+06
-1.4148e+06
-1.33972e+06
-1.26589e+06
-1.19358e+06
-1.12314e+06
-1.05494e+06
-989436
-927128
-868591
-814453
-765379
-722032
-684981
-654498
-629922
-605976
-565444
10533.9
-7.33613e+07
-5.54463e+07
-4.98841e+07
-4.80063e+07
-4.7319e+07
-4.71133e+07
-4.71201e+07
-4.72187e+07
-4.73501e+07
-4.74843e+07
-4.76063e+07
-4.77091e+07
-4.77903e+07
-4.78497e+07
-4.78886e+07
-4.7909e+07
-4.79129e+07
-4.79025e+07
-4.788e+07
-4.78471e+07
-4.78055e+07
-4.77568e+07
-4.77023e+07
-4.76429e+07
-4.75796e+07
-4.75132e+07
-4.74443e+07
-4.73734e+07
-4.7301e+07
-4.72273e+07
-4.71527e+07
-4.70774e+07
-4.70015e+07
-4.69252e+07
-4.68485e+07
-4.67717e+07
-4.66946e+07
-4.66175e+07
-4.65402e+07
-4.64629e+07
-4.63855e+07
-4.63081e+07
-4.62307e+07
-4.61533e+07
-4.60759e+07
-4.59985e+07
-4.59211e+07
-4.58437e+07
-4.57663e+07
-4.56889e+07
-4.56115e+07
-4.55341e+07
-4.54567e+07
-4.53793e+07
-4.53019e+07
-4.52246e+07
-4.51472e+07
-4.50698e+07
-4.49924e+07
-4.4915e+07
-4.48377e+07
-4.47603e+07
-4.46829e+07
-4.46055e+07
-4.45282e+07
-4.44508e+07
-4.43734e+07
-4.4296e+07
-4.42187e+07
-4.41413e+07
-4.40639e+07
-4.39866e+07
-4.39092e+07
-4.38318e+07
-4.37544e+07
-4.36771e+07
-4.35997e+07
-4.35223e+07
-4.34449e+07
-4.33676e+07
-4.32902e+07
-4.32128e+07
-4.31355e+07
-4.30581e+07
-4.29807e+07
-4.29033e+07
-4.2826e+07
-4.27486e+07
-4.26712e+07
-4.25938e+07
-4.25165e+07
-4.24391e+07
-4.23617e+07
-4.22844e+07
-4.2207e+07
-4.21296e+07
-4.20522e+07
-4.19749e+07
-4.18975e+07
-4.18201e+07
-4.17428e+07
-4.16654e+07
-4.1588e+07
-4.15106e+07
-4.14333e+07
-4.13559e+07
-4.12785e+07
-4.12011e+07
-4.11238e+07
-4.10464e+07
-4.0969e+07
-4.08917e+07
-4.08143e+07
-4.07369e+07
-4.06595e+07
-4.05822e+07
-4.05048e+07
-4.04274e+07
-4.035e+07
-4.02727e+07
-4.01953e+07
-4.01179e+07
-4.00406e+07
-3.99632e+07
-3.98858e+07
-3.98084e+07
-3.97311e+07
-3.96537e+07
-3.95763e+07
-3.9499e+07
-3.94216e+07
-3.93442e+07
-3.92668e+07
-3.91895e+07
-3.91121e+07
-3.90347e+07
-3.89573e+07
-3.888e+07
-3.88026e+07
-3.87252e+07
-3.86479e+07
-3.85705e+07
-3.84931e+07
-3.84157e+07
-3.83384e+07
-3.8261e+07
-3.81836e+07
-3.81062e+07
-3.80289e+07
-3.79515e+07
-3.78741e+07
-3.77968e+07
-3.77194e+07
-3.7642e+07
-3.75646e+07
-3.74873e+07
-3.74099e+07
-3.73325e+07
-3.72551e+07
-3.71778e+07
-3.71004e+07
-3.7023e+07
-3.69457e+07
-3.68683e+07
-3.67909e+07
-3.67135e+07
-3.66362e+07
-3.65588e+07
-3.64814e+07
-3.64041e+07
-3.63267e+07
-3.62493e+07
-3.61719e+07
-3.60946e+07
-3.60172e+07
-3.59398e+07
-3.58624e+07
-3.57851e+07
-3.57077e+07
-3.56303e+07
-3.5553e+07
-3.54756e+07
-3.53982e+07
-3.53208e+07
-3.52435e+07
-3.51661e+07
-3.50887e+07
-3.50113e+07
-3.4934e+07
-3.48566e+07
-3.47792e+07
-3.47019e+07
-3.46245e+07
-3.45471e+07
-3.44697e+07
-3.43924e+07
-3.4315e+07
-3.42376e+07
-3.41603e+07
-3.40829e+07
-3.40055e+07
-3.39281e+07
-3.38508e+07
-3.37734e+07
-3.3696e+07
-3.36186e+07
-3.35413e+07
-3.34639e+07
-3.33865e+07
-3.33092e+07
-3.32318e+07
-3.31544e+07
-3.3077e+07
-3.29997e+07
-3.29223e+07
-3.28449e+07
-3.27675e+07
-3.26902e+07
-3.26128e+07
-3.25354e+07
-3.24581e+07
-3.23807e+07
-3.23033e+07
-3.22259e+07
-3.21486e+07
-3.20712e+07
-3.19938e+07
-3.19165e+07
-3.18391e+07
-3.17617e+07
-3.16843e+07
-3.1607e+07
-3.15296e+07
-3.14522e+07
-3.13748e+07
-3.12975e+07
-3.12201e+07
-3.11427e+07
-3.10654e+07
-3.0988e+07
-3.09106e+07
-3.08332e+07
-3.07559e+07
-3.06785e+07
-3.06011e+07
-3.05237e+07
-3.04464e+07
-3.0369e+07
-3.02916e+07
-3.02143e+07
-3.01369e+07
-3.00595e+07
-2.99821e+07
-2.99048e+07
-2.98274e+07
-2.975e+07
-2.96726e+07
-2.95953e+07
-2.95179e+07
-2.94405e+07
-2.93632e+07
-2.92858e+07
-2.92084e+07
-2.9131e+07
-2.90537e+07
-2.89763e+07
-2.88989e+07
-2.88216e+07
-2.87442e+07
-2.86668e+07
-2.85894e+07
-2.85121e+07
-2.84347e+07
-2.83573e+07
-2.82799e+07
-2.82026e+07
-2.81252e+07
-2.80478e+07
-2.79705e+07
-2.78931e+07
-2.78157e+07
-2.77383e+07
-2.7661e+07
-2.75836e+07
-2.75062e+07
-2.74288e+07
-2.73515e+07
-2.72741e+07
-2.71967e+07
-2.71194e+07
-2.7042e+07
-2.69646e+07
-2.68872e+07
-2.68099e+07
-2.67325e+07
-2.66551e+07
-2.65778e+07
-2.65004e+07
-2.6423e+07
-2.63456e+07
-2.62683e+07
-2.61909e+07
-2.61135e+07
-2.60361e+07
-2.59588e+07
-2.58814e+07
-2.5804e+07
-2.57267e+07
-2.56493e+07
-2.55719e+07
-2.54945e+07
-2.54172e+07
-2.53398e+07
-2.52624e+07
-2.5185e+07
-2.51077e+07
-2.50303e+07
-2.49529e+07
-2.48756e+07
-2.47982e+07
-2.47208e+07
-2.46434e+07
-2.45661e+07
-2.44887e+07
-2.44113e+07
-2.43339e+07
-2.42566e+07
-2.41792e+07
-2.41018e+07
-2.40245e+07
-2.39471e+07
-2.38697e+07
-2.37923e+07
-2.3715e+07
-2.36376e+07
-2.35602e+07
-2.34829e+07
-2.34055e+07
-2.33281e+07
-2.32507e+07
-2.31734e+07
-2.3096e+07
-2.30186e+07
-2.29412e+07
-2.28639e+07
-2.27865e+07
-2.27091e+07
-2.26318e+07
-2.25544e+07
-2.2477e+07
-2.23996e+07
-2.23223e+07
-2.22449e+07
-2.21675e+07
-2.20901e+07
-2.20128e+07
-2.19354e+07
-2.1858e+07
-2.17807e+07
-2.17033e+07
-2.16259e+07
-2.15485e+07
-2.14712e+07
-2.13938e+07
-2.13164e+07
-2.12391e+07
-2.11617e+07
-2.10843e+07
-2.10069e+07
-2.09296e+07
-2.08522e+07
-2.07748e+07
-2.06974e+07
-2.06201e+07
-2.05427e+07
-2.04653e+07
-2.0388e+07
-2.03106e+07
-2.02332e+07
-2.01558e+07
-2.00785e+07
-2.00011e+07
-1.99237e+07
-1.98463e+07
-1.9769e+07
-1.96916e+07
-1.96142e+07
-1.95369e+07
-1.94595e+07
-1.93821e+07
-1.93047e+07
-1.92274e+07
-1.915e+07
-1.90726e+07
-1.89952e+07
-1.89179e+07
-1.88405e+07
-1.87631e+07
-1.86858e+07
-1.86084e+07
-1.8531e+07
-1.84536e+07
-1.83763e+07
-1.82989e+07
-1.82215e+07
-1.81442e+07
-1.80668e+07
-1.79894e+07
-1.7912e+07
-1.78347e+07
-1.77573e+07
-1.76799e+07
-1.76025e+07
-1.75252e+07
-1.74478e+07
-1.73704e+07
-1.72931e+07
-1.72157e+07
-1.71383e+07
-1.70609e+07
-1.69836e+07
-1.69062e+07
-1.68288e+07
-1.67514e+07
-1.66741e+07
-1.65967e+07
-1.65193e+07
-1.6442e+07
-1.63646e+07
-1.62872e+07
-1.62098e+07
-1.61325e+07
-1.60551e+07
-1.59777e+07
-1.59004e+07
-1.5823e+07
-1.57456e+07
-1.56682e+07
-1.55909e+07
-1.55135e+07
-1.54361e+07
-1.53587e+07
-1.52814e+07
-1.5204e+07
-1.51266e+07
-1.50493e+07
-1.49719e+07
-1.48945e+07
-1.48171e+07
-1.47398e+07
-1.46624e+07
-1.4585e+07
-1.45076e+07
-1.44303e+07
-1.43529e+07
-1.42755e+07
-1.41982e+07
-1.41208e+07
-1.40434e+07
-1.3966e+07
-1.38887e+07
-1.38113e+07
-1.37339e+07
-1.36566e+07
-1.35792e+07
-1.35018e+07
-1.34244e+07
-1.33471e+07
-1.32697e+07
-1.31923e+07
-1.31149e+07
-1.30376e+07
-1.29602e+07
-1.28828e+07
-1.28055e+07
-1.27281e+07
-1.26507e+07
-1.25733e+07
-1.2496e+07
-1.24186e+07
-1.23412e+07
-1.22638e+07
-1.21865e+07
-1.21091e+07
-1.20317e+07
-1.19544e+07
-1.1877e+07
-1.17996e+07
-1.17222e+07
-1.16449e+07
-1.15675e+07
-1.14901e+07
-1.14127e+07
-1.13354e+07
-1.1258e+07
-1.11806e+07
-1.11033e+07
-1.10259e+07
-1.09485e+07
-1.08711e+07
-1.07938e+07
-1.07164e+07
-1.0639e+07
-1.05617e+07
-1.04843e+07
-1.04069e+07
-1.03295e+07
-1.02522e+07
-1.01748e+07
-1.00974e+07
-1.002e+07
-9.94267e+06
-9.8653e+06
-9.78793e+06
-9.71055e+06
-9.63318e+06
-9.55581e+06
-9.47844e+06
-9.40106e+06
-9.32369e+06
-9.24632e+06
-9.16895e+06
-9.09158e+06
-9.0142e+06
-8.93683e+06
-8.85946e+06
-8.78209e+06
-8.70471e+06
-8.62734e+06
-8.54997e+06
-8.4726e+06
-8.39522e+06
-8.31785e+06
-8.24048e+06
-8.16311e+06
-8.08573e+06
-8.00836e+06
-7.93099e+06
-7.85362e+06
-7.77624e+06
-7.69887e+06
-7.6215e+06
-7.54413e+06
-7.46675e+06
-7.38938e+06
-7.31201e+06
-7.23464e+06
-7.15726e+06
-7.07989e+06
-7.00252e+06
-6.92515e+06
-6.84777e+06
-6.7704e+06
-6.69303e+06
-6.61566e+06
-6.53828e+06
-6.46091e+06
-6.38354e+06
-6.30617e+06
-6.22879e+06
-6.15142e+06
-6.07405e+06
-5.99668e+06
-5.9193e+06
-5.84193e+06
-5.76456e+06
-5.68719e+06
-5.60981e+06
-5.53244e+06
-5.45507e+06
-5.3777e+06
-5.30032e+06
-5.22295e+06
-5.14558e+06
-5.06821e+06
-4.99083e+06
-4.91346e+06
-4.83609e+06
-4.75872e+06
-4.68134e+06
-4.60397e+06
-4.5266e+06
-4.44923e+06
-4.37185e+06
-4.29448e+06
-4.21711e+06
-4.13973e+06
-4.06236e+06
-3.98499e+06
-3.90761e+06
-3.83024e+06
-3.75286e+06
-3.67549e+06
-3.59811e+06
-3.52074e+06
-3.44336e+06
-3.36598e+06
-3.28861e+06
-3.21123e+06
-3.13385e+06
-3.05647e+06
-2.9791e+06
-2.90172e+06
-2.82435e+06
-2.74698e+06
-2.66962e+06
-2.59227e+06
-2.51494e+06
-2.43763e+06
-2.36034e+06
-2.2831e+06
-2.2059e+06
-2.12878e+06
-2.05174e+06
-1.97482e+06
-1.89805e+06
-1.82147e+06
-1.74514e+06
-1.66911e+06
-1.59348e+06
-1.51833e+06
-1.44379e+06
-1.36998e+06
-1.29708e+06
-1.22528e+06
-1.15481e+06
-1.08591e+06
-1.01888e+06
-954023
-891667
-832123
-775651
-722366
-672070
-623884
-575308
-519262
-432596
-219102
466490
-6.58566e+07
-5.63165e+07
-5.06787e+07
-4.80853e+07
-4.68983e+07
-4.63606e+07
-4.61393e+07
-4.60765e+07
-4.60912e+07
-4.61399e+07
-4.61989e+07
-4.62552e+07
-4.6302e+07
-4.63363e+07
-4.63571e+07
-4.63645e+07
-4.63594e+07
-4.6343e+07
-4.63167e+07
-4.62818e+07
-4.62395e+07
-4.6191e+07
-4.61374e+07
-4.60795e+07
-4.6018e+07
-4.59537e+07
-4.58871e+07
-4.58187e+07
-4.57488e+07
-4.56777e+07
-4.56057e+07
-4.5533e+07
-4.54597e+07
-4.5386e+07
-4.5312e+07
-4.52377e+07
-4.51633e+07
-4.50887e+07
-4.50141e+07
-4.49393e+07
-4.48645e+07
-4.47897e+07
-4.47149e+07
-4.464e+07
-4.45652e+07
-4.44903e+07
-4.44155e+07
-4.43406e+07
-4.42657e+07
-4.41909e+07
-4.4116e+07
-4.40412e+07
-4.39663e+07
-4.38915e+07
-4.38166e+07
-4.37418e+07
-4.36669e+07
-4.35921e+07
-4.35173e+07
-4.34424e+07
-4.33676e+07
-4.32927e+07
-4.32179e+07
-4.31431e+07
-4.30682e+07
-4.29934e+07
-4.29186e+07
-4.28437e+07
-4.27689e+07
-4.2694e+07
-4.26192e+07
-4.25444e+07
-4.24695e+07
-4.23947e+07
-4.23199e+07
-4.2245e+07
-4.21702e+07
-4.20954e+07
-4.20205e+07
-4.19457e+07
-4.18709e+07
-4.1796e+07
-4.17212e+07
-4.16463e+07
-4.15715e+07
-4.14967e+07
-4.14218e+07
-4.1347e+07
-4.12722e+07
-4.11973e+07
-4.11225e+07
-4.10477e+07
-4.09728e+07
-4.0898e+07
-4.08232e+07
-4.07483e+07
-4.06735e+07
-4.05986e+07
-4.05238e+07
-4.0449e+07
-4.03741e+07
-4.02993e+07
-4.02245e+07
-4.01496e+07
-4.00748e+07
-4e+07
-3.99251e+07
-3.98503e+07
-3.97755e+07
-3.97006e+07
-3.96258e+07
-3.95509e+07
-3.94761e+07
-3.94013e+07
-3.93264e+07
-3.92516e+07
-3.91768e+07
-3.91019e+07
-3.90271e+07
-3.89523e+07
-3.88774e+07
-3.88026e+07
-3.87278e+07
-3.86529e+07
-3.85781e+07
-3.85032e+07
-3.84284e+07
-3.83536e+07
-3.82787e+07
-3.82039e+07
-3.81291e+07
-3.80542e+07
-3.79794e+07
-3.79046e+07
-3.78297e+07
-3.77549e+07
-3.76801e+07
-3.76052e+07
-3.75304e+07
-3.74555e+07
-3.73807e+07
-3.73059e+07
-3.7231e+07
-3.71562e+07
-3.70814e+07
-3.70065e+07
-3.69317e+07
-3.68569e+07
-3.6782e+07
-3.67072e+07
-3.66324e+07
-3.65575e+07
-3.64827e+07
-3.64078e+07
-3.6333e+07
-3.62582e+07
-3.61833e+07
-3.61085e+07
-3.60337e+07
-3.59588e+07
-3.5884e+07
-3.58092e+07
-3.57343e+07
-3.56595e+07
-3.55847e+07
-3.55098e+07
-3.5435e+07
-3.53601e+07
-3.52853e+07
-3.52105e+07
-3.51356e+07
-3.50608e+07
-3.4986e+07
-3.49111e+07
-3.48363e+07
-3.47615e+07
-3.46866e+07
-3.46118e+07
-3.4537e+07
-3.44621e+07
-3.43873e+07
-3.43124e+07
-3.42376e+07
-3.41628e+07
-3.40879e+07
-3.40131e+07
-3.39383e+07
-3.38634e+07
-3.37886e+07
-3.37138e+07
-3.36389e+07
-3.35641e+07
-3.34893e+07
-3.34144e+07
-3.33396e+07
-3.32648e+07
-3.31899e+07
-3.31151e+07
-3.30402e+07
-3.29654e+07
-3.28906e+07
-3.28157e+07
-3.27409e+07
-3.26661e+07
-3.25912e+07
-3.25164e+07
-3.24416e+07
-3.23667e+07
-3.22919e+07
-3.22171e+07
-3.21422e+07
-3.20674e+07
-3.19925e+07
-3.19177e+07
-3.18429e+07
-3.1768e+07
-3.16932e+07
-3.16184e+07
-3.15435e+07
-3.14687e+07
-3.13939e+07
-3.1319e+07
-3.12442e+07
-3.11694e+07
-3.10945e+07
-3.10197e+07
-3.09448e+07
-3.087e+07
-3.07952e+07
-3.07203e+07
-3.06455e+07
-3.05707e+07
-3.04958e+07
-3.0421e+07
-3.03462e+07
-3.02713e+07
-3.01965e+07
-3.01217e+07
-3.00468e+07
-2.9972e+07
-2.98971e+07
-2.98223e+07
-2.97475e+07
-2.96726e+07
-2.95978e+07
-2.9523e+07
-2.94481e+07
-2.93733e+07
-2.92985e+07
-2.92236e+07
-2.91488e+07
-2.9074e+07
-2.89991e+07
-2.89243e+07
-2.88494e+07
-2.87746e+07
-2.86998e+07
-2.86249e+07
-2.85501e+07
-2.84753e+07
-2.84004e+07
-2.83256e+07
-2.82508e+07
-2.81759e+07
-2.81011e+07
-2.80263e+07
-2.79514e+07
-2.78766e+07
-2.78017e+07
-2.77269e+07
-2.76521e+07
-2.75772e+07
-2.75024e+07
-2.74276e+07
-2.73527e+07
-2.72779e+07
-2.72031e+07
-2.71282e+07
-2.70534e+07
-2.69786e+07
-2.69037e+07
-2.68289e+07
-2.6754e+07
-2.66792e+07
-2.66044e+07
-2.65295e+07
-2.64547e+07
-2.63799e+07
-2.6305e+07
-2.62302e+07
-2.61554e+07
-2.60805e+07
-2.60057e+07
-2.59309e+07
-2.5856e+07
-2.57812e+07
-2.57063e+07
-2.56315e+07
-2.55567e+07
-2.54818e+07
-2.5407e+07
-2.53322e+07
-2.52573e+07
-2.51825e+07
-2.51077e+07
-2.50328e+07
-2.4958e+07
-2.48832e+07
-2.48083e+07
-2.47335e+07
-2.46586e+07
-2.45838e+07
-2.4509e+07
-2.44341e+07
-2.43593e+07
-2.42845e+07
-2.42096e+07
-2.41348e+07
-2.406e+07
-2.39851e+07
-2.39103e+07
-2.38355e+07
-2.37606e+07
-2.36858e+07
-2.3611e+07
-2.35361e+07
-2.34613e+07
-2.33864e+07
-2.33116e+07
-2.32368e+07
-2.31619e+07
-2.30871e+07
-2.30123e+07
-2.29374e+07
-2.28626e+07
-2.27878e+07
-2.27129e+07
-2.26381e+07
-2.25633e+07
-2.24884e+07
-2.24136e+07
-2.23387e+07
-2.22639e+07
-2.21891e+07
-2.21142e+07
-2.20394e+07
-2.19646e+07
-2.18897e+07
-2.18149e+07
-2.17401e+07
-2.16652e+07
-2.15904e+07
-2.15156e+07
-2.14407e+07
-2.13659e+07
-2.1291e+07
-2.12162e+07
-2.11414e+07
-2.10665e+07
-2.09917e+07
-2.09169e+07
-2.0842e+07
-2.07672e+07
-2.06924e+07
-2.06175e+07
-2.05427e+07
-2.04679e+07
-2.0393e+07
-2.03182e+07
-2.02433e+07
-2.01685e+07
-2.00937e+07
-2.00188e+07
-1.9944e+07
-1.98692e+07
-1.97943e+07
-1.97195e+07
-1.96447e+07
-1.95698e+07
-1.9495e+07
-1.94202e+07
-1.93453e+07
-1.92705e+07
-1.91956e+07
-1.91208e+07
-1.9046e+07
-1.89711e+07
-1.88963e+07
-1.88215e+07
-1.87466e+07
-1.86718e+07
-1.8597e+07
-1.85221e+07
-1.84473e+07
-1.83725e+07
-1.82976e+07
-1.82228e+07
-1.81479e+07
-1.80731e+07
-1.79983e+07
-1.79234e+07
-1.78486e+07
-1.77738e+07
-1.76989e+07
-1.76241e+07
-1.75493e+07
-1.74744e+07
-1.73996e+07
-1.73248e+07
-1.72499e+07
-1.71751e+07
-1.71002e+07
-1.70254e+07
-1.69506e+07
-1.68757e+07
-1.68009e+07
-1.67261e+07
-1.66512e+07
-1.65764e+07
-1.65016e+07
-1.64267e+07
-1.63519e+07
-1.62771e+07
-1.62022e+07
-1.61274e+07
-1.60525e+07
-1.59777e+07
-1.59029e+07
-1.5828e+07
-1.57532e+07
-1.56784e+07
-1.56035e+07
-1.55287e+07
-1.54539e+07
-1.5379e+07
-1.53042e+07
-1.52294e+07
-1.51545e+07
-1.50797e+07
-1.50049e+07
-1.493e+07
-1.48552e+07
-1.47803e+07
-1.47055e+07
-1.46307e+07
-1.45558e+07
-1.4481e+07
-1.44062e+07
-1.43313e+07
-1.42565e+07
-1.41817e+07
-1.41068e+07
-1.4032e+07
-1.39572e+07
-1.38823e+07
-1.38075e+07
-1.37326e+07
-1.36578e+07
-1.3583e+07
-1.35081e+07
-1.34333e+07
-1.33585e+07
-1.32836e+07
-1.32088e+07
-1.3134e+07
-1.30591e+07
-1.29843e+07
-1.29095e+07
-1.28346e+07
-1.27598e+07
-1.26849e+07
-1.26101e+07
-1.25353e+07
-1.24604e+07
-1.23856e+07
-1.23108e+07
-1.22359e+07
-1.21611e+07
-1.20863e+07
-1.20114e+07
-1.19366e+07
-1.18618e+07
-1.17869e+07
-1.17121e+07
-1.16372e+07
-1.15624e+07
-1.14876e+07
-1.14127e+07
-1.13379e+07
-1.12631e+07
-1.11882e+07
-1.11134e+07
-1.10386e+07
-1.09637e+07
-1.08889e+07
-1.08141e+07
-1.07392e+07
-1.06644e+07
-1.05895e+07
-1.05147e+07
-1.04399e+07
-1.0365e+07
-1.02902e+07
-1.02154e+07
-1.01405e+07
-1.00657e+07
-9.99086e+06
-9.91603e+06
-9.84119e+06
-9.76635e+06
-9.69152e+06
-9.61668e+06
-9.54185e+06
-9.46701e+06
-9.39218e+06
-9.31734e+06
-9.2425e+06
-9.16767e+06
-9.09283e+06
-9.018e+06
-8.94316e+06
-8.86833e+06
-8.79349e+06
-8.71865e+06
-8.64382e+06
-8.56898e+06
-8.49415e+06
-8.41931e+06
-8.34448e+06
-8.26964e+06
-8.19481e+06
-8.11997e+06
-8.04513e+06
-7.9703e+06
-7.89546e+06
-7.82063e+06
-7.74579e+06
-7.67096e+06
-7.59612e+06
-7.52128e+06
-7.44645e+06
-7.37161e+06
-7.29678e+06
-7.22194e+06
-7.14711e+06
-7.07227e+06
-6.99743e+06
-6.9226e+06
-6.84776e+06
-6.77293e+06
-6.69809e+06
-6.62326e+06
-6.54842e+06
-6.47359e+06
-6.39875e+06
-6.32391e+06
-6.24908e+06
-6.17424e+06
-6.09941e+06
-6.02457e+06
-5.94974e+06
-5.8749e+06
-5.80006e+06
-5.72523e+06
-5.65039e+06
-5.57556e+06
-5.50072e+06
-5.42589e+06
-5.35105e+06
-5.27621e+06
-5.20138e+06
-5.12654e+06
-5.05171e+06
-4.97687e+06
-4.90204e+06
-4.8272e+06
-4.75236e+06
-4.67753e+06
-4.60269e+06
-4.52786e+06
-4.45302e+06
-4.37819e+06
-4.30335e+06
-4.22851e+06
-4.15368e+06
-4.07884e+06
-4.00401e+06
-3.92917e+06
-3.85433e+06
-3.77949e+06
-3.70466e+06
-3.62982e+06
-3.55498e+06
-3.48014e+06
-3.40531e+06
-3.33047e+06
-3.25563e+06
-3.18079e+06
-3.10595e+06
-3.03111e+06
-2.95627e+06
-2.88144e+06
-2.8066e+06
-2.73177e+06
-2.65695e+06
-2.58213e+06
-2.50733e+06
-2.43254e+06
-2.35777e+06
-2.28304e+06
-2.20834e+06
-2.13369e+06
-2.05911e+06
-1.98462e+06
-1.91025e+06
-1.83601e+06
-1.76196e+06
-1.68814e+06
-1.6146e+06
-1.54142e+06
-1.46868e+06
-1.39648e+06
-1.32494e+06
-1.25418e+06
-1.18436e+06
-1.11564e+06
-1.04822e+06
-982274
-917984
-855493
-794865
-736001
-678492
-621323
-562244
-496235
-411311
-276405
-13286.9
483867
-6.15177e+07
-5.53059e+07
-5.06e+07
-4.78403e+07
-4.63426e+07
-4.55448e+07
-4.51278e+07
-4.49197e+07
-4.48263e+07
-4.47944e+07
-4.4793e+07
-4.48041e+07
-4.48173e+07
-4.48266e+07
-4.4829e+07
-4.48231e+07
-4.48087e+07
-4.47859e+07
-4.47556e+07
-4.47183e+07
-4.4675e+07
-4.46265e+07
-4.45736e+07
-4.45169e+07
-4.44571e+07
-4.43948e+07
-4.43304e+07
-4.42643e+07
-4.41968e+07
-4.41282e+07
-4.40588e+07
-4.39886e+07
-4.3918e+07
-4.38469e+07
-4.37755e+07
-4.37038e+07
-4.3632e+07
-4.356e+07
-4.34879e+07
-4.34158e+07
-4.33436e+07
-4.32713e+07
-4.3199e+07
-4.31268e+07
-4.30544e+07
-4.29821e+07
-4.29098e+07
-4.28375e+07
-4.27652e+07
-4.26929e+07
-4.26206e+07
-4.25482e+07
-4.24759e+07
-4.24036e+07
-4.23313e+07
-4.2259e+07
-4.21867e+07
-4.21144e+07
-4.20421e+07
-4.19698e+07
-4.18975e+07
-4.18252e+07
-4.17529e+07
-4.16806e+07
-4.16083e+07
-4.1536e+07
-4.14637e+07
-4.13914e+07
-4.13191e+07
-4.12468e+07
-4.11745e+07
-4.11022e+07
-4.10299e+07
-4.09576e+07
-4.08853e+07
-4.0813e+07
-4.07407e+07
-4.06684e+07
-4.05961e+07
-4.05238e+07
-4.04515e+07
-4.03792e+07
-4.03069e+07
-4.02346e+07
-4.01623e+07
-4.009e+07
-4.00177e+07
-3.99454e+07
-3.98731e+07
-3.98008e+07
-3.97285e+07
-3.96562e+07
-3.95839e+07
-3.95116e+07
-3.94393e+07
-3.9367e+07
-3.92947e+07
-3.92224e+07
-3.91501e+07
-3.90778e+07
-3.90055e+07
-3.89332e+07
-3.88609e+07
-3.87886e+07
-3.87163e+07
-3.8644e+07
-3.85717e+07
-3.84994e+07
-3.84271e+07
-3.83548e+07
-3.82825e+07
-3.82102e+07
-3.81379e+07
-3.80656e+07
-3.79933e+07
-3.7921e+07
-3.78487e+07
-3.77764e+07
-3.77041e+07
-3.76318e+07
-3.75595e+07
-3.74872e+07
-3.74149e+07
-3.73426e+07
-3.72703e+07
-3.71981e+07
-3.71258e+07
-3.70535e+07
-3.69812e+07
-3.69089e+07
-3.68366e+07
-3.67643e+07
-3.6692e+07
-3.66197e+07
-3.65474e+07
-3.64751e+07
-3.64028e+07
-3.63305e+07
-3.62582e+07
-3.61859e+07
-3.61136e+07
-3.60413e+07
-3.5969e+07
-3.58967e+07
-3.58244e+07
-3.57521e+07
-3.56798e+07
-3.56075e+07
-3.55352e+07
-3.54629e+07
-3.53906e+07
-3.53183e+07
-3.5246e+07
-3.51737e+07
-3.51014e+07
-3.50291e+07
-3.49568e+07
-3.48845e+07
-3.48122e+07
-3.47399e+07
-3.46676e+07
-3.45953e+07
-3.4523e+07
-3.44507e+07
-3.43784e+07
-3.43061e+07
-3.42338e+07
-3.41615e+07
-3.40892e+07
-3.40169e+07
-3.39446e+07
-3.38723e+07
-3.38e+07
-3.37277e+07
-3.36554e+07
-3.35831e+07
-3.35108e+07
-3.34385e+07
-3.33662e+07
-3.32939e+07
-3.32216e+07
-3.31493e+07
-3.3077e+07
-3.30047e+07
-3.29324e+07
-3.28601e+07
-3.27878e+07
-3.27155e+07
-3.26432e+07
-3.25709e+07
-3.24986e+07
-3.24263e+07
-3.2354e+07
-3.22817e+07
-3.22094e+07
-3.21371e+07
-3.20648e+07
-3.19925e+07
-3.19202e+07
-3.18479e+07
-3.17756e+07
-3.17033e+07
-3.1631e+07
-3.15587e+07
-3.14864e+07
-3.14141e+07
-3.13418e+07
-3.12695e+07
-3.11972e+07
-3.11249e+07
-3.10526e+07
-3.09803e+07
-3.09081e+07
-3.08358e+07
-3.07635e+07
-3.06912e+07
-3.06189e+07
-3.05466e+07
-3.04743e+07
-3.0402e+07
-3.03297e+07
-3.02574e+07
-3.01851e+07
-3.01128e+07
-3.00405e+07
-2.99682e+07
-2.98959e+07
-2.98236e+07
-2.97513e+07
-2.9679e+07
-2.96067e+07
-2.95344e+07
-2.94621e+07
-2.93898e+07
-2.93175e+07
-2.92452e+07
-2.91729e+07
-2.91006e+07
-2.90283e+07
-2.8956e+07
-2.88837e+07
-2.88114e+07
-2.87391e+07
-2.86668e+07
-2.85945e+07
-2.85222e+07
-2.84499e+07
-2.83776e+07
-2.83053e+07
-2.8233e+07
-2.81607e+07
-2.80884e+07
-2.80161e+07
-2.79438e+07
-2.78715e+07
-2.77992e+07
-2.77269e+07
-2.76546e+07
-2.75823e+07
-2.751e+07
-2.74377e+07
-2.73654e+07
-2.72931e+07
-2.72208e+07
-2.71485e+07
-2.70762e+07
-2.70039e+07
-2.69316e+07
-2.68593e+07
-2.6787e+07
-2.67147e+07
-2.66424e+07
-2.65701e+07
-2.64978e+07
-2.64255e+07
-2.63532e+07
-2.62809e+07
-2.62086e+07
-2.61363e+07
-2.6064e+07
-2.59917e+07
-2.59194e+07
-2.58471e+07
-2.57748e+07
-2.57025e+07
-2.56302e+07
-2.55579e+07
-2.54856e+07
-2.54133e+07
-2.5341e+07
-2.52687e+07
-2.51964e+07
-2.51241e+07
-2.50518e+07
-2.49795e+07
-2.49072e+07
-2.48349e+07
-2.47626e+07
-2.46903e+07
-2.46181e+07
-2.45458e+07
-2.44735e+07
-2.44012e+07
-2.43289e+07
-2.42566e+07
-2.41843e+07
-2.4112e+07
-2.40397e+07
-2.39674e+07
-2.38951e+07
-2.38228e+07
-2.37505e+07
-2.36782e+07
-2.36059e+07
-2.35336e+07
-2.34613e+07
-2.3389e+07
-2.33167e+07
-2.32444e+07
-2.31721e+07
-2.30998e+07
-2.30275e+07
-2.29552e+07
-2.28829e+07
-2.28106e+07
-2.27383e+07
-2.2666e+07
-2.25937e+07
-2.25214e+07
-2.24491e+07
-2.23768e+07
-2.23045e+07
-2.22322e+07
-2.21599e+07
-2.20876e+07
-2.20153e+07
-2.1943e+07
-2.18707e+07
-2.17984e+07
-2.17261e+07
-2.16538e+07
-2.15815e+07
-2.15092e+07
-2.14369e+07
-2.13646e+07
-2.12923e+07
-2.122e+07
-2.11477e+07
-2.10754e+07
-2.10031e+07
-2.09308e+07
-2.08585e+07
-2.07862e+07
-2.07139e+07
-2.06416e+07