/*--------------------------------*- C++ -*----------------------------------*\
| =========                 |                                                 |
| \\      /  F ield         | foam-extend: Open Source CFD                    |
|  \\    /   O peration     | Version:     4.0                                |
|   \\  /    A nd           | Web:         http://www.foam-extend.org         |
|    \\/     M anipulation  |                                                 |
\*---------------------------------------------------------------------------*/
FoamFile
{
    version     2.0;
    format      ascii;
    class       volSymmTensorField;
    location    "1";
    object      sigma;
}
// * * * * * * * * * * * * * * * * * * * * * * * * * * * * * * * * * * * * * //

dimensions      [1 -1 -2 0 0 0 0];

internalField   nonuniform List<symmTensor> 
40960
(
(-1.38428e+08 -1.59269e+07 1.59073e-11 -2.03071e+07 0 -4.76204e+07)
(-1.16438e+08 -2.45794e+06 -3.81776e-11 -958140 0 -3.52189e+07)
(-1.11858e+08 -502410 -2.54517e-11 -10797.5 0 -3.35605e+07)
(-1.10265e+08 35152.8 5.09034e-11 86342.2 1.27259e-11 -3.30535e+07)
(-1.10049e+08 197242 2.54517e-11 52085.5 -3.81776e-11 -3.2999e+07)
(-1.10408e+08 238343 2.54517e-11 25405.5 -2.54517e-11 -3.31147e+07)
(-1.1098e+08 233001 2.54517e-11 10594.1 -2.54517e-11 -3.32908e+07)
(-1.11596e+08 209339 5.09034e-11 2857.07 -2.54517e-11 -3.3478e+07)
(-1.12177e+08 179361 1.01807e-10 -1085.88 2.54517e-11 -3.36535e+07)
(-1.12689e+08 148523 1.01807e-10 -2992.71 0 -3.38075e+07)
(-1.13117e+08 119331 5.09034e-11 -3790.65 5.09034e-11 -3.39364e+07)
(-1.13463e+08 92872.4 -1.01807e-10 -3981.63 0 -3.404e+07)
(-1.13729e+08 69519.9 0 -3845.74 -5.09034e-11 -3.41198e+07)
(-1.13923e+08 49279.8 -5.09034e-11 -3543.14 0 -3.4178e+07)
(-1.14054e+08 31973.4 2.03614e-10 -3166.63 5.09034e-11 -3.42172e+07)
(-1.1413e+08 17335.2 5.09034e-10 -2770.07 1.5271e-10 -3.42399e+07)
(-1.14159e+08 5067.11 -2.03614e-10 -2384.1 -2.03614e-10 -3.42484e+07)
(-1.14148e+08 -5131.74 1.01807e-10 -2025.36 3.05421e-10 -3.42451e+07)
(-1.14104e+08 -13547.8 -1.01807e-10 -1701.9 5.09034e-11 -3.42317e+07)
(-1.14032e+08 -20444.8 -3.05421e-10 -1416.57 0 -3.421e+07)
(-1.13937e+08 -26059.5 4.07227e-10 -1169.05 2.03614e-10 -3.41815e+07)
(-1.13824e+08 -30601 2.03614e-10 -957.223 1.01807e-10 -3.41474e+07)
(-1.13695e+08 -34251.2 0 -777.998 0 -3.41088e+07)
(-1.13555e+08 -37166.4 0 -627.86 0 -3.40666e+07)
(-1.13404e+08 -39479.8 -2.03614e-10 -503.204 -2.03614e-10 -3.40214e+07)
(-1.13246e+08 -41303.8 -1.01807e-10 -400.549 -1.01807e-10 -3.39738e+07)
(-1.13081e+08 -42732.2 -1.01807e-10 -316.658 -3.05421e-10 -3.39244e+07)
(-1.12912e+08 -43843 -4.07227e-10 -248.599 0 -3.38736e+07)
(-1.12739e+08 -44700.5 -2.03614e-10 -193.774 -3.05421e-10 -3.38217e+07)
(-1.12563e+08 -45357.4 4.07227e-10 -149.915 1.22168e-09 -3.37689e+07)
(-1.12384e+08 -45856.2 -2.03614e-10 -115.069 4.07227e-10 -3.37154e+07)
(-1.12204e+08 -46231.5 -4.07227e-10 -87.5752 -2.03614e-10 -3.36614e+07)
(-1.12023e+08 -46510.9 0 -66.0361 -4.07227e-10 -3.3607e+07)
(-1.11841e+08 -46716.5 -2.03614e-10 -49.2848 -1.01807e-09 -3.35523e+07)
(-1.11658e+08 -46865.6 -2.03614e-10 -36.3565 0 -3.34974e+07)
(-1.11475e+08 -46972.1 2.03614e-10 -26.4597 -6.10841e-10 -3.34424e+07)
(-1.11291e+08 -47046.5 -4.07227e-10 -18.9498 -4.07227e-10 -3.33872e+07)
(-1.11107e+08 -47097.2 -8.14455e-10 -13.3057 -8.14455e-10 -3.3332e+07)
(-1.10922e+08 -47130.4 -4.07227e-10 -9.10922 -1.01807e-09 -3.32767e+07)
(-1.10738e+08 -47151.1 -4.07227e-10 -6.02717 0 -3.32214e+07)
(-1.10554e+08 -47162.9 8.14455e-10 -3.7958 6.10841e-10 -3.31661e+07)
(-1.10369e+08 -47168.5 0 -2.20798 1.4253e-09 -3.31107e+07)
(-1.10184e+08 -47169.9 1.01807e-09 -1.10208 8.14455e-10 -3.30553e+07)
(-1.1e+08 -47168.7 2.03614e-10 -0.353082 -8.14455e-10 -3.3e+07)
(-1.09815e+08 -47165.8 -8.14455e-10 0.135035 1.22168e-09 -3.29446e+07)
(-1.09631e+08 -47162.1 4.07227e-10 0.435315 -4.07227e-10 -3.28893e+07)
(-1.09446e+08 -47158 4.07227e-10 0.602875 1.22168e-09 -3.28339e+07)
(-1.09262e+08 -47153.8 -2.03614e-10 0.67882 -8.14455e-10 -3.27785e+07)
(-1.09077e+08 -47149.9 0 0.693472 8.14455e-10 -3.27232e+07)
(-1.08893e+08 -47146.2 0 0.668855 -8.14455e-10 -3.26678e+07)
(-1.08708e+08 -47142.9 -4.07227e-10 0.620748 8.14455e-10 -3.26125e+07)
(-1.08524e+08 -47140 8.14455e-10 0.560189 1.22168e-09 -3.25572e+07)
(-1.08339e+08 -47137.5 4.07227e-10 0.494795 0 -3.25018e+07)
(-1.08155e+08 -47135.4 4.07227e-10 0.429586 4.07227e-10 -3.24465e+07)
(-1.07971e+08 -47133.6 2.03614e-10 0.367662 0 -3.23912e+07)
(-1.07786e+08 -47132.1 -1.01807e-09 0.310764 -3.25782e-09 -3.23358e+07)
(-1.07602e+08 -47130.8 4.07227e-10 0.259833 2.03614e-09 -3.22805e+07)
(-1.07417e+08 -47129.8 -4.07227e-10 0.215134 0 -3.22252e+07)
(-1.07233e+08 -47129 1.83252e-09 0.17655 4.07227e-10 -3.21699e+07)
(-1.07048e+08 -47128.3 8.14455e-10 0.143665 0 -3.21145e+07)
(-1.06864e+08 -47127.8 -8.14455e-10 0.115998 -2.44336e-09 -3.20592e+07)
(-1.0668e+08 -47127.4 8.14455e-10 0.0929384 3.25782e-09 -3.20039e+07)
(-1.06495e+08 -47127 -8.14455e-10 0.0738969 8.14455e-10 -3.19486e+07)
(-1.06311e+08 -47126.8 8.14455e-10 0.0582978 2.44336e-09 -3.18932e+07)
(-1.06126e+08 -47126.6 8.14455e-10 0.0456612 4.88673e-09 -3.18379e+07)
(-1.05942e+08 -47126.4 -2.85059e-09 0.035508 -1.62891e-09 -3.17826e+07)
(-1.05758e+08 -47126.3 4.07227e-10 0.0273753 1.62891e-09 -3.17273e+07)
(-1.05573e+08 -47126.2 1.22168e-09 0.0209399 -1.62891e-09 -3.1672e+07)
(-1.05389e+08 -47126.1 1.22168e-09 0.0158845 -8.14455e-10 -3.16166e+07)
(-1.05204e+08 -47126.1 8.14455e-10 0.0119172 1.62891e-09 -3.15613e+07)
(-1.0502e+08 -47126 -1.22168e-09 0.00882781 -5.70118e-09 -3.1506e+07)
(-1.04836e+08 -47126 1.22168e-09 0.00641456 -8.14455e-10 -3.14507e+07)
(-1.04651e+08 -47126 -4.07227e-10 0.0045855 1.62891e-09 -3.13953e+07)
(-1.04467e+08 -47126 0 0.00324176 0 -3.134e+07)
(-1.04282e+08 -47126 1.22168e-09 0.00223715 0 -3.12847e+07)
(-1.04098e+08 -47126 -4.07227e-10 0.00152424 -2.44336e-09 -3.12294e+07)
(-1.03914e+08 -47126 2.03614e-09 0.000978284 -3.25782e-09 -3.11741e+07)
(-1.03729e+08 -47126 0 0.00061205 0 -3.11187e+07)
(-1.03545e+08 -47126 2.03614e-09 0.00033167 -3.25782e-09 -3.10634e+07)
(-1.0336e+08 -47126 1.62891e-09 0.000146002 1.62891e-09 -3.10081e+07)
(-1.03176e+08 -47126 -4.07227e-10 1.93715e-06 8.14455e-10 -3.09528e+07)
(-1.02991e+08 -47126 0 -7.26581e-05 -3.25782e-09 -3.08974e+07)
(-1.02807e+08 -47126 -4.07227e-10 -0.000168994 8.14455e-10 -3.08421e+07)
(-1.02623e+08 -47126 1.62891e-09 -0.000189416 4.88673e-09 -3.07868e+07)
(-1.02438e+08 -47126 0 -0.000206523 -8.14455e-10 -3.07315e+07)
(-1.02254e+08 -47126 1.22168e-09 -0.000325002 1.62891e-09 -3.06762e+07)
(-1.02069e+08 -47126 -8.14455e-10 -0.000351377 3.25782e-09 -3.06208e+07)
(-1.01885e+08 -47126 1.22168e-09 -0.000217058 3.25782e-09 -3.05655e+07)
(-1.01701e+08 -47126 2.44336e-09 -0.000179306 8.14455e-09 -3.05102e+07)
(-1.01516e+08 -47126 -4.07227e-10 -0.000156946 -1.62891e-09 -3.04549e+07)
(-1.01332e+08 -47126 -4.07227e-10 -0.000121355 0 -3.03995e+07)
(-1.01147e+08 -47126 -4.07227e-10 -0.000120156 -1.62891e-09 -3.03442e+07)
(-1.00963e+08 -47126 2.03614e-09 -0.000128224 0 -3.02889e+07)
(-1.00779e+08 -47126 -8.14455e-10 -0.000120305 6.51564e-09 -3.02336e+07)
(-1.00594e+08 -47126 -1.62891e-09 -6.93277e-05 -1.62891e-09 -3.01783e+07)
(-1.0041e+08 -47126 -1.22168e-09 -9.03383e-05 1.62891e-09 -3.01229e+07)
(-1.00225e+08 -47126 1.62891e-09 -5.47841e-05 0 -3.00676e+07)
(-1.00041e+08 -47126 2.03614e-09 -3.0227e-05 0 -3.00123e+07)
(-9.98566e+07 -47126 4.07227e-09 -5.93811e-06 3.25782e-09 -2.9957e+07)
(-9.96722e+07 -47126 -4.07227e-10 3.24249e-05 1.62891e-09 -2.99017e+07)
(-9.94878e+07 -47126 1.62891e-09 -4.71175e-05 -1.62891e-09 -2.98463e+07)
(-9.93034e+07 -47126 2.03614e-09 -0.000102386 -1.62891e-09 -2.9791e+07)
(-9.9119e+07 -47126 -4.07227e-10 -3.10689e-05 8.14455e-09 -2.97357e+07)
(-9.89346e+07 -47126 1.62891e-09 -1.36718e-05 3.25782e-09 -2.96804e+07)
(-9.87501e+07 -47126 -1.22168e-09 2.35587e-05 1.62891e-09 -2.9625e+07)
(-9.85657e+07 -47126 -1.22168e-09 3.11434e-06 -1.62891e-09 -2.95697e+07)
(-9.83813e+07 -47126 4.07227e-10 -2.98098e-05 3.25782e-09 -2.95144e+07)
(-9.81969e+07 -47126 4.07227e-10 -6.18398e-07 -4.88673e-09 -2.94591e+07)
(-9.80125e+07 -47126 8.14455e-10 2.18973e-05 3.25782e-09 -2.94038e+07)
(-9.78281e+07 -47126 -1.22168e-09 3.52412e-05 -3.25782e-09 -2.93484e+07)
(-9.76437e+07 -47126 -8.14455e-10 2.92063e-06 -3.25782e-09 -2.92931e+07)
(-9.74593e+07 -47126 2.03614e-09 -5.62966e-05 3.25782e-09 -2.92378e+07)
(-9.72749e+07 -47126 -4.07227e-10 -1.79335e-05 0 -2.91825e+07)
(-9.70905e+07 -47126 -1.22168e-09 5.37857e-05 3.25782e-09 -2.91271e+07)
(-9.69061e+07 -47126 4.07227e-10 8.91313e-05 -6.51564e-09 -2.90718e+07)
(-9.67217e+07 -47126 -8.14455e-10 3.08529e-05 0 -2.90165e+07)
(-9.65373e+07 -47126 0 -1.885e-06 9.77346e-09 -2.89612e+07)
(-9.63529e+07 -47126 0 -3.43993e-05 4.88673e-09 -2.89059e+07)
(-9.61685e+07 -47126 0 -7.63088e-05 6.51564e-09 -2.88505e+07)
(-9.59841e+07 -47126 0 -0.000303984 1.62891e-09 -2.87952e+07)
(-9.57997e+07 -47126 0 -0.000374056 -3.25782e-09 -2.87399e+07)
(-9.56152e+07 -47126 1.22168e-09 -4.15966e-05 6.51564e-09 -2.86846e+07)
(-9.54308e+07 -47126 -4.07227e-10 5.42104e-05 -1.62891e-09 -2.86293e+07)
(-9.52464e+07 -47126 -4.07227e-10 2.24039e-05 9.77346e-09 -2.85739e+07)
(-9.5062e+07 -47126 -1.22168e-09 6.14077e-05 3.25782e-09 -2.85186e+07)
(-9.48776e+07 -47126 -1.62891e-09 6.90073e-05 -6.51564e-09 -2.84633e+07)
(-9.46932e+07 -47126 1.62891e-09 3.732e-05 3.25782e-09 -2.8408e+07)
(-9.45088e+07 -47126 -8.14455e-10 2.92063e-06 -3.25782e-09 -2.83526e+07)
(-9.43244e+07 -47126 2.44336e-09 -4.09707e-05 9.77346e-09 -2.82973e+07)
(-9.414e+07 -47126 -2.44336e-09 -4.4629e-05 0 -2.8242e+07)
(-9.39556e+07 -47126 1.62891e-09 -2.82526e-05 6.51564e-09 -2.81867e+07)
(-9.37712e+07 -47126 8.14455e-10 -9.28342e-06 9.77346e-09 -2.81314e+07)
(-9.35868e+07 -47126 0 -6.12959e-05 3.25782e-09 -2.8076e+07)
(-9.34024e+07 -47126 -1.62891e-09 -6.04987e-06 9.77346e-09 -2.80207e+07)
(-9.3218e+07 -47126 0 7.46399e-05 3.25782e-09 -2.79654e+07)
(-9.30336e+07 -47126 8.14455e-10 0.00011009 -3.25782e-09 -2.79101e+07)
(-9.28492e+07 -47126 -8.14455e-10 -8.65012e-06 1.30313e-08 -2.78547e+07)
(-9.26647e+07 -47126 8.14455e-10 -9.91449e-05 0 -2.77994e+07)
(-9.24803e+07 -47126 2.44336e-09 -6.28605e-05 1.95469e-08 -2.77441e+07)
(-9.22959e+07 -47126 -4.07227e-09 6.11991e-05 1.30313e-08 -2.76888e+07)
(-9.21115e+07 -47126 8.14455e-10 6.65039e-05 6.51564e-09 -2.76335e+07)
(-9.19271e+07 -47126 -2.44336e-09 -2.18898e-05 3.25782e-09 -2.75781e+07)
(-9.17427e+07 -47126 8.14455e-10 -0.000135206 6.51564e-09 -2.75228e+07)
(-9.15583e+07 -47126 -8.14455e-10 -0.000215694 -3.25782e-09 -2.74675e+07)
(-9.13739e+07 -47126 1.62891e-09 -0.000137202 3.25782e-09 -2.74122e+07)
(-9.11895e+07 -47126 -8.14455e-10 -0.000115201 0 -2.73569e+07)
(-9.10051e+07 -47126 -8.14455e-10 -0.000145636 1.30313e-08 -2.73015e+07)
(-9.08207e+07 -47126 1.62891e-09 -7.91252e-05 -9.77346e-09 -2.72462e+07)
(-9.06363e+07 -47126 1.62891e-09 1.66744e-05 -9.77346e-09 -2.71909e+07)
(-9.04519e+07 -47126 0 0.000136048 0 -2.71356e+07)
(-9.02675e+07 -47126 1.62891e-09 0.000222676 -3.25782e-09 -2.70802e+07)
(-9.00831e+07 -47126 -8.14455e-10 0.000185773 3.25782e-09 -2.70249e+07)
(-8.98987e+07 -47126 -1.62891e-09 -0.000135317 1.30313e-08 -2.69696e+07)
(-8.97143e+07 -47126 0 -0.00071808 6.51564e-09 -2.69143e+07)
(-8.95298e+07 -47126 1.62891e-09 -0.000783548 0 -2.6859e+07)
(-8.93454e+07 -47126 4.07227e-09 -0.0001719 -3.25782e-09 -2.68036e+07)
(-8.9161e+07 -47126 2.44336e-09 0.000142299 3.25782e-09 -2.67483e+07)
(-8.89766e+07 -47126 -1.62891e-09 0.000137292 -1.30313e-08 -2.6693e+07)
(-8.87922e+07 -47126 -2.44336e-09 9.67458e-05 1.95469e-08 -2.66377e+07)
(-8.86078e+07 -47126 0 4.68642e-06 3.25782e-09 -2.65823e+07)
(-8.84234e+07 -47126 -8.14455e-10 -8.42437e-05 0 -2.6527e+07)
(-8.8239e+07 -47126 -8.14455e-10 -0.000199325 -2.28047e-08 -2.64717e+07)
(-8.80546e+07 -47126 0 -0.000246763 -9.77346e-09 -2.64164e+07)
(-8.78702e+07 -47126 0 -0.000144906 0 -2.63611e+07)
(-8.76858e+07 -47126 0 -0.000126041 -9.77346e-09 -2.63057e+07)
(-8.75014e+07 -47126 8.14455e-10 -0.000308678 3.25782e-09 -2.62504e+07)
(-8.7317e+07 -47126 -8.14455e-10 -0.000431284 -9.77346e-09 -2.61951e+07)
(-8.71326e+07 -47126 0 -0.000260934 6.51564e-09 -2.61398e+07)
(-8.69482e+07 -47126 -8.14455e-10 -8.04812e-05 3.25782e-09 -2.60844e+07)
(-8.67638e+07 -47126 -1.62891e-09 -9.07928e-05 6.51564e-09 -2.60291e+07)
(-8.65794e+07 -47126 -1.62891e-09 -0.000167638 -3.25782e-09 -2.59738e+07)
(-8.63949e+07 -47126 -8.14455e-10 -0.000323281 -9.77346e-09 -2.59185e+07)
(-8.62105e+07 -47126 1.62891e-09 -0.000379883 9.77346e-09 -2.58632e+07)
(-8.60261e+07 -47126 4.88673e-09 -0.000379369 3.25782e-09 -2.58078e+07)
(-8.58417e+07 -47126 3.25782e-09 -0.000269897 3.25782e-09 -2.57525e+07)
(-8.56573e+07 -47126 -1.62891e-09 -0.000239469 0 -2.56972e+07)
(-8.54729e+07 -47126 2.44336e-09 -8.66354e-05 -9.77346e-09 -2.56419e+07)
(-8.52885e+07 -47126 0 3.65898e-05 -6.51564e-09 -2.55866e+07)
(-8.51041e+07 -47126 1.62891e-09 -1.91778e-05 -1.30313e-08 -2.55312e+07)
(-8.49197e+07 -47126 -8.14455e-10 -0.000206731 1.30313e-08 -2.54759e+07)
(-8.47353e+07 -47126 8.14455e-10 -0.000416681 -6.51564e-09 -2.54206e+07)
(-8.45509e+07 -47126 -2.44336e-09 -0.000422522 -2.60626e-08 -2.53653e+07)
(-8.43665e+07 -47126 -1.62891e-09 -0.000493936 6.51564e-09 -2.53099e+07)
(-8.41821e+07 -47126 -8.14455e-10 -0.000421904 6.51564e-09 -2.52546e+07)
(-8.39977e+07 -47126 0 -0.000353403 6.51564e-09 -2.51993e+07)
(-8.38133e+07 -47126 8.14455e-10 -0.000325575 0 -2.5144e+07)
(-8.36289e+07 -47126 -8.14455e-10 -0.000219241 -3.90938e-08 -2.50887e+07)
(-8.34444e+07 -47126 -1.62891e-09 -0.000711821 0 -2.50333e+07)
(-8.326e+07 -47126 8.14455e-10 -0.000929072 0 -2.4978e+07)
(-8.30756e+07 -47126 1.62891e-09 -0.000435352 0 -2.49227e+07)
(-8.28912e+07 -47126 1.62891e-09 -0.000148557 -6.51564e-09 -2.48674e+07)
(-8.27068e+07 -47126 -2.44336e-09 -0.000290439 -2.60626e-08 -2.4812e+07)
(-8.25224e+07 -47126 8.14455e-10 -0.000176713 1.95469e-08 -2.47567e+07)
(-8.2338e+07 -47126 0 7.45356e-05 6.51564e-09 -2.47014e+07)
(-8.21536e+07 -47126 0 -5.91129e-05 -1.30313e-08 -2.46461e+07)
(-8.19692e+07 -47126 1.62891e-09 -0.000417523 -6.51564e-09 -2.45908e+07)
(-8.17848e+07 -47126 -8.14455e-10 -0.000477567 -1.95469e-08 -2.45354e+07)
(-8.16004e+07 -47126 1.62891e-09 -0.000468291 0 -2.44801e+07)
(-8.1416e+07 -47126 -8.14455e-10 -0.000464745 -6.51564e-09 -2.44248e+07)
(-8.12316e+07 -47126 -1.62891e-09 -0.00038562 -6.51564e-09 -2.43695e+07)
(-8.10472e+07 -47126 -1.62891e-09 -0.000279389 6.51564e-09 -2.43142e+07)
(-8.08628e+07 -47126 8.14455e-10 -0.000223823 0 -2.42588e+07)
(-8.06784e+07 -47126 0 -8.52793e-05 0 -2.42035e+07)
(-8.0494e+07 -47126 8.14455e-10 -0.000113532 6.51564e-09 -2.41482e+07)
(-8.03095e+07 -47126 0 -4.711e-05 -1.30313e-08 -2.40929e+07)
(-8.01251e+07 -47126 -1.62891e-09 -0.00021027 -6.51564e-09 -2.40375e+07)
(-7.99407e+07 -47126 2.44336e-09 -0.000394166 -1.95469e-08 -2.39822e+07)
(-7.97563e+07 -47126 8.14455e-10 -0.00022237 -1.30313e-08 -2.39269e+07)
(-7.95719e+07 -47126 8.14455e-10 3.39895e-05 0 -2.38716e+07)
(-7.93875e+07 -47126 -8.14455e-10 0.000278756 1.30313e-08 -2.38163e+07)
(-7.92031e+07 -47126 -8.14455e-10 -0.000305139 6.51564e-09 -2.37609e+07)
(-7.90187e+07 -47126 -3.25782e-09 -0.000380822 -1.95469e-08 -2.37056e+07)
(-7.88343e+07 -47126 -8.14455e-10 -9.64329e-05 -6.51564e-09 -2.36503e+07)
(-7.86499e+07 -47126 -4.88673e-09 1.70916e-05 -4.56095e-08 -2.3595e+07)
(-7.84655e+07 -47126 -1.62891e-09 -0.000264786 0 -2.35396e+07)
(-7.82811e+07 -47126 1.62891e-09 -0.000200897 1.95469e-08 -2.34843e+07)
(-7.80967e+07 -47126 -4.88673e-09 0.000159405 -1.95469e-08 -2.3429e+07)
(-7.79123e+07 -47126 -8.14455e-10 1.73002e-05 6.51564e-09 -2.33737e+07)
(-7.77279e+07 -47126 0 -0.000299931 -2.60626e-08 -2.33184e+07)
(-7.75435e+07 -47126 -2.44336e-09 -0.000332981 0 -2.3263e+07)
(-7.73591e+07 -47126 3.25782e-09 -0.00053918 2.60626e-08 -2.32077e+07)
(-7.71746e+07 -47126 -3.25782e-09 -0.00103375 -2.60626e-08 -2.31524e+07)
(-7.69902e+07 -47126 0 -0.00131272 -6.51564e-09 -2.30971e+07)
(-7.68058e+07 -47126 8.14455e-10 -0.000645932 -2.60626e-08 -2.30418e+07)
(-7.66214e+07 -47126 -8.14455e-10 -0.000238732 6.51564e-09 -2.29864e+07)
(-7.6437e+07 -47126 4.07227e-09 -0.000138238 4.56095e-08 -2.29311e+07)
(-7.62526e+07 -47126 2.44336e-09 -3.02382e-05 -3.25782e-08 -2.28758e+07)
(-7.60682e+07 -47126 1.62891e-09 -0.000375926 -1.30313e-08 -2.28205e+07)
(-7.58838e+07 -47126 -8.14455e-10 -0.00025291 -3.90938e-08 -2.27651e+07)
(-7.56994e+07 -47126 -4.88673e-09 -0.000177234 4.56095e-08 -2.27098e+07)
(-7.5515e+07 -47126 4.07227e-09 7.88122e-05 7.1672e-08 -2.26545e+07)
(-7.53306e+07 -47126 -8.14455e-10 0.00013344 -1.30313e-08 -2.25992e+07)
(-7.51462e+07 -47126 -2.44336e-09 -0.00018369 -1.95469e-08 -2.25439e+07)
(-7.49618e+07 -47126 -1.62891e-09 -0.000383016 0 -2.24885e+07)
(-7.47774e+07 -47126 -4.07227e-09 -0.0003311 -5.21251e-08 -2.24332e+07)
(-7.4593e+07 -47126 4.07227e-09 -0.000288561 7.1672e-08 -2.23779e+07)
(-7.44086e+07 -47126 0 -0.000406157 -6.51564e-09 -2.23226e+07)
(-7.42242e+07 -47126 8.14455e-10 -0.0002869 6.51564e-09 -2.22672e+07)
(-7.40397e+07 -47126 -4.07227e-09 -8.98615e-05 -2.60626e-08 -2.22119e+07)
(-7.38553e+07 -47126 -2.44336e-09 -0.000367589 6.51564e-09 -2.21566e+07)
(-7.36709e+07 -47126 5.70118e-09 -0.00039323 6.51564e-08 -2.21013e+07)
(-7.34865e+07 -47126 -3.25782e-09 -0.000361118 1.30313e-08 -2.2046e+07)
(-7.33021e+07 -47126 1.62891e-09 -0.000379886 -1.95469e-08 -2.19906e+07)
(-7.31177e+07 -47126 -8.14455e-10 -0.000336096 0 -2.19353e+07)
(-7.29333e+07 -47126 -5.70118e-09 -0.000196192 -1.95469e-08 -2.188e+07)
(-7.27489e+07 -47126 2.44336e-09 -0.00025437 4.56095e-08 -2.18247e+07)
(-7.25645e+07 -47126 -1.62891e-09 6.1091e-05 0 -2.17693e+07)
(-7.23801e+07 -47126 0 0.000266887 6.51564e-09 -2.1714e+07)
(-7.21957e+07 -47126 3.25782e-09 -0.000123017 -3.90938e-08 -2.16587e+07)
(-7.20113e+07 -47126 8.14455e-10 -9.38401e-06 6.51564e-09 -2.16034e+07)
(-7.18269e+07 -47126 4.88673e-09 -2.64831e-05 5.86407e-08 -2.15481e+07)
(-7.16425e+07 -47126 -8.14455e-10 -8.25673e-05 0 -2.14927e+07)
(-7.14581e+07 -47126 -8.14455e-10 -9.04873e-05 0 -2.14374e+07)
(-7.12737e+07 -47126 -2.44336e-09 -4.0032e-05 -2.60626e-08 -2.13821e+07)
(-7.10892e+07 -47126 8.14455e-10 -0.000803765 0 -2.13268e+07)
(-7.09048e+07 -47126 4.88673e-09 -0.00190445 2.60626e-08 -2.12715e+07)
(-7.07204e+07 -47126 -8.14455e-10 -0.00183752 -1.30313e-08 -2.12161e+07)
(-7.0536e+07 -47126 -8.14455e-10 -0.000601731 -1.30313e-08 -2.11608e+07)
(-7.03516e+07 -47126 -4.07227e-09 -0.000263337 2.60626e-08 -2.11055e+07)
(-7.01672e+07 -47126 0 -0.00043473 2.60626e-08 -2.10502e+07)
(-6.99828e+07 -47126 0 -0.000226852 1.0425e-07 -2.09948e+07)
(-6.97984e+07 -47126 -8.14455e-10 -0.000130102 -3.90938e-08 -2.09395e+07)
(-6.9614e+07 -47126 -8.14455e-10 -0.000304412 1.30313e-08 -2.08842e+07)
(-6.94296e+07 -47126 -2.44336e-09 -0.000434097 1.30313e-08 -2.08289e+07)
(-6.92452e+07 -47126 -8.14455e-10 -0.000550233 -3.90938e-08 -2.07736e+07)
(-6.90608e+07 -47126 5.70118e-09 -0.000397615 7.81877e-08 -2.07182e+07)
(-6.88764e+07 -47126 8.14455e-10 -0.000622787 -1.30313e-08 -2.06629e+07)
(-6.8692e+07 -47126 -8.14455e-10 -0.000802521 -2.60626e-08 -2.06076e+07)
(-6.85076e+07 -47126 -8.14455e-10 -0.000476215 1.30313e-08 -2.05523e+07)
(-6.83232e+07 -47126 -5.70118e-09 -0.000317547 -3.90938e-08 -2.04969e+07)
(-6.81388e+07 -47126 4.07227e-09 -0.000251032 7.81877e-08 -2.04416e+07)
(-6.79543e+07 -47126 -8.14455e-10 -4.3992e-05 -1.30313e-08 -2.03863e+07)
(-6.77699e+07 -47126 -1.62891e-09 -0.000181608 2.60626e-08 -2.0331e+07)
(-6.75855e+07 -47126 0 -0.00029565 -1.30313e-08 -2.02757e+07)
(-6.74011e+07 -47126 -2.44336e-09 -0.000205167 0 -2.02203e+07)
(-6.72167e+07 -47126 7.33009e-09 -0.00033256 2.60626e-08 -2.0165e+07)
(-6.70323e+07 -47126 0 -0.000302952 -3.90938e-08 -2.01097e+07)
(-6.68479e+07 -47126 -8.14455e-10 -0.000307739 0 -2.00544e+07)
(-6.66635e+07 -47126 1.62891e-09 -0.000173684 1.30313e-08 -1.99991e+07)
(-6.64791e+07 -47126 -5.70118e-09 -0.000121765 2.60626e-08 -1.99437e+07)
(-6.62947e+07 -47126 1.62891e-09 -0.000259165 5.21251e-08 -1.98884e+07)
(-6.61103e+07 -47126 -3.25782e-09 -0.00062884 -3.90938e-08 -1.98331e+07)
(-6.59259e+07 -47126 8.14455e-10 -0.000486851 2.60626e-08 -1.97778e+07)
(-6.57415e+07 -47126 -8.14455e-10 -0.000167843 0 -1.97224e+07)
(-6.55571e+07 -47126 8.14455e-10 -0.000469554 1.30313e-08 -1.96671e+07)
(-6.53727e+07 -47126 5.70118e-09 -0.000574213 3.90938e-08 -1.96118e+07)
(-6.51883e+07 -47126 0 -0.000569832 -6.51564e-08 -1.95565e+07)
(-6.50039e+07 -47126 8.14455e-10 -0.000475805 -3.90938e-08 -1.95012e+07)
(-6.48194e+07 -47126 -4.07227e-09 -0.000821494 -9.12189e-08 -1.94458e+07)
(-6.4635e+07 -47126 -4.07227e-09 -0.0018715 -5.21251e-08 -1.93905e+07)
(-6.44506e+07 -47126 8.959e-09 -0.00197554 7.81877e-08 -1.93352e+07)
(-6.42662e+07 -47126 0 -0.000692848 -3.90938e-08 -1.92799e+07)
(-6.40818e+07 -47126 1.62891e-09 -0.000262916 0 -1.92245e+07)
(-6.38974e+07 -47126 -1.62891e-09 0.000131566 -5.21251e-08 -1.91692e+07)
(-6.3713e+07 -47126 -1.62891e-09 -0.000211839 -3.90938e-08 -1.91139e+07)
(-6.35286e+07 -47126 6.51564e-09 -0.000246871 1.17281e-07 -1.90586e+07)
(-6.33442e+07 -47126 1.62891e-09 1.7304e-05 -6.51564e-08 -1.90033e+07)
(-6.31598e+07 -47126 -1.62891e-09 -0.000541482 -2.60626e-08 -1.89479e+07)
(-6.29754e+07 -47126 0 -0.000282109 -1.30313e-08 -1.88926e+07)
(-6.2791e+07 -47126 0 -0.000135727 -2.60626e-08 -1.88373e+07)
(-6.26066e+07 -47126 8.14455e-09 -0.000165548 7.81877e-08 -1.8782e+07)
(-6.24222e+07 -47126 -3.25782e-09 -0.000128016 -1.30313e-08 -1.87267e+07)
(-6.22378e+07 -47126 -1.62891e-09 -0.000300866 0 -1.86713e+07)
(-6.20534e+07 -47126 -1.62891e-09 -0.000128649 -2.60626e-08 -1.8616e+07)
(-6.18689e+07 -47126 -6.51564e-09 -0.000265632 -2.60626e-08 -1.85607e+07)
(-6.16845e+07 -47126 9.77346e-09 -0.000248116 6.51564e-08 -1.85054e+07)
(-6.15001e+07 -47126 1.62891e-09 -0.00023498 -1.30313e-08 -1.845e+07)
(-6.13157e+07 -47126 1.62891e-09 0.000105083 1.30313e-08 -1.83947e+07)
(-6.11313e+07 -47126 1.62891e-09 0.000403658 -5.21251e-08 -1.83394e+07)
(-6.09469e+07 -47126 -4.88673e-09 0.000190157 1.30313e-08 -1.82841e+07)
(-6.07625e+07 -47126 3.25782e-09 -4.79557e-05 5.21251e-08 -1.82288e+07)
(-6.05781e+07 -47126 -1.62891e-09 -0.000157624 -3.90938e-08 -1.81734e+07)
(-6.03937e+07 -47126 -3.25782e-09 -0.000230182 7.81877e-08 -1.81181e+07)
(-6.02093e+07 -47126 1.62891e-09 0.000186812 0 -1.80628e+07)
(-6.00249e+07 -47126 -1.62891e-09 0.000375092 -9.12189e-08 -1.80075e+07)
(-5.98405e+07 -47126 0 0.000290234 5.21251e-08 -1.79521e+07)
(-5.96561e+07 -47126 6.51564e-09 0.000567745 -5.21251e-08 -1.78968e+07)
(-5.94717e+07 -47126 1.62891e-09 1.03936e-06 -1.30313e-08 -1.78415e+07)
(-5.92873e+07 -47126 0 -0.000425965 0 -1.77862e+07)
(-5.91029e+07 -47126 1.62891e-09 -0.000599023 -2.60626e-08 -1.77309e+07)
(-5.89185e+07 -47126 1.62891e-09 -0.000382178 0 -1.76755e+07)
(-5.8734e+07 -47126 -6.51564e-09 -0.000154499 2.60626e-08 -1.76202e+07)
(-5.85496e+07 -47126 3.25782e-09 -0.00126038 0 -1.75649e+07)
(-5.83652e+07 -47126 -1.62891e-09 -0.00349321 -1.30313e-08 -1.75096e+07)
(-5.81808e+07 -47126 3.25782e-09 -0.00303264 -5.21251e-08 -1.74542e+07)
(-5.79964e+07 -47126 0 -0.000769164 1.30313e-08 -1.73989e+07)
(-5.7812e+07 -47126 1.62891e-09 -0.000484142 1.30313e-08 -1.73436e+07)
(-5.76276e+07 -47126 3.25782e-09 -0.000517078 3.90938e-08 -1.72883e+07)
(-5.74432e+07 -47126 -1.62891e-09 5.1707e-05 -6.51564e-08 -1.7233e+07)
(-5.72588e+07 -47126 1.62891e-09 0.000208501 0 -1.71776e+07)
(-5.70744e+07 -47126 3.25782e-09 0.000321083 -2.60626e-08 -1.71223e+07)
(-5.689e+07 -47126 3.25782e-09 -0.000312742 2.60626e-08 -1.7067e+07)
(-5.67056e+07 -47126 4.88673e-09 -0.000234772 1.30313e-08 -1.70117e+07)
(-5.65212e+07 -47126 -4.88673e-09 0.00016325 -5.21251e-08 -1.69564e+07)
(-5.63368e+07 -47126 -1.62891e-09 -0.000480801 -1.30313e-08 -1.6901e+07)
(-5.61524e+07 -47126 0 -0.000587769 0 -1.68457e+07)
(-5.5968e+07 -47126 4.88673e-09 -0.00060444 -2.60626e-08 -1.67904e+07)
(-5.57836e+07 -47126 0 -0.000836715 -3.90938e-08 -1.67351e+07)
(-5.55991e+07 -47126 -1.62891e-09 -0.000925113 -2.60626e-08 -1.66797e+07)
(-5.54147e+07 -47126 1.62891e-09 -0.000343397 1.30313e-08 -1.66244e+07)
(-5.52303e+07 -47126 0 4.00282e-05 0 -1.65691e+07)
(-5.50459e+07 -47126 -1.62891e-09 0.000251662 2.60626e-08 -1.65138e+07)
(-5.48615e+07 -47126 -1.62891e-09 0.000291903 -2.60626e-08 -1.64585e+07)
(-5.46771e+07 -47126 1.62891e-09 0.000381138 -9.12189e-08 -1.64031e+07)
(-5.44927e+07 -47126 0 5.69187e-05 -1.30313e-08 -1.63478e+07)
(-5.43083e+07 -47126 -6.51564e-09 4.21144e-05 2.60626e-08 -1.62925e+07)
(-5.41239e+07 -47126 4.88673e-09 -0.000374049 -6.51564e-08 -1.62372e+07)
(-5.39395e+07 -47126 -6.51564e-09 -0.000901554 0 -1.61818e+07)
(-5.37551e+07 -47126 -8.14455e-09 -0.000392608 -6.51564e-08 -1.61265e+07)
(-5.35707e+07 -47126 -4.88673e-09 -0.000256453 2.60626e-08 -1.60712e+07)
(-5.33863e+07 -47126 3.25782e-09 -0.000446606 -1.30313e-08 -1.60159e+07)
(-5.32019e+07 -47126 0 -0.000347987 -1.30313e-08 -1.59606e+07)
(-5.30175e+07 -47126 0 -0.000316918 6.51564e-08 -1.59052e+07)
(-5.28331e+07 -47126 3.25782e-09 -0.000637174 -1.30313e-08 -1.58499e+07)
(-5.26487e+07 -47126 0 -0.000384264 -1.30313e-08 -1.57946e+07)
(-5.24642e+07 -47126 -3.25782e-09 -0.000219133 -1.30313e-08 -1.57393e+07)
(-5.22798e+07 -47126 0 -0.00135088 0 -1.5684e+07)
(-5.20954e+07 -47126 -3.25782e-09 -0.00311333 1.30313e-08 -1.56286e+07)
(-5.1911e+07 -47126 1.62891e-09 -0.00340919 -2.60626e-08 -1.55733e+07)
(-5.17266e+07 -47126 1.62891e-09 -0.00111694 -1.30313e-08 -1.5518e+07)
(-5.15422e+07 -47126 3.25782e-09 -0.000449732 1.30313e-08 -1.54627e+07)
(-5.13578e+07 -47126 3.25782e-09 -0.000577964 -2.60626e-08 -1.54073e+07)
(-5.11734e+07 -47126 0 -3.37735e-05 0 -1.5352e+07)
(-5.0989e+07 -47126 -1.62891e-09 8.58977e-05 -7.81877e-08 -1.52967e+07)
(-5.08046e+07 -47126 -3.25782e-09 -0.000399068 0 -1.52414e+07)
(-5.06202e+07 -47126 0 -0.000389896 1.30313e-08 -1.51861e+07)
(-5.04358e+07 -47126 -1.62891e-09 -0.000875495 -2.60626e-08 -1.51307e+07)
(-5.02514e+07 -47126 1.62891e-09 -0.000487264 0 -1.50754e+07)
(-5.0067e+07 -47126 -4.88673e-09 0.000239354 -2.60626e-08 -1.50201e+07)
(-4.98826e+07 -47126 0 5.62519e-06 -3.90938e-08 -1.49648e+07)
(-4.96982e+07 -47126 -1.62891e-09 -0.000473715 0 -1.49094e+07)
(-4.95137e+07 -47126 -1.62891e-09 -0.000962652 5.21251e-08 -1.48541e+07)
(-4.93293e+07 -47126 0 -0.00145283 -2.60626e-08 -1.47988e+07)
(-4.91449e+07 -47126 -1.62891e-09 -0.000850681 -1.0425e-07 -1.47435e+07)
(-4.89605e+07 -47126 -3.25782e-09 -0.000561904 -1.30313e-08 -1.46882e+07)
(-4.87761e+07 -47126 0 -0.000407621 -2.60626e-08 -1.46328e+07)
(-4.85917e+07 -47126 0 -0.000792511 0 -1.45775e+07)
(-4.84073e+07 -47126 1.62891e-09 -0.00124787 0 -1.45222e+07)
(-4.82229e+07 -47126 1.62891e-09 -8.75667e-05 -1.30313e-07 -1.44669e+07)
(-4.80385e+07 -47126 0 0.000698682 2.60626e-08 -1.44116e+07)
(-4.78541e+07 -47126 3.25782e-09 -0.000666786 -2.60626e-08 -1.43562e+07)
(-4.76697e+07 -47126 0 -0.000847347 -5.21251e-08 -1.43009e+07)
(-4.74853e+07 -47126 0 0.000315044 2.60626e-08 -1.42456e+07)
(-4.73009e+07 -47126 -1.62891e-09 -0.000217889 -7.81877e-08 -1.41903e+07)
(-4.71165e+07 -47126 -1.62891e-09 -0.000886753 0 -1.41349e+07)
(-4.69321e+07 -47126 3.25782e-09 -0.00129374 -2.60626e-08 -1.40796e+07)
(-4.67477e+07 -47126 4.88673e-09 -0.00130563 -5.21251e-08 -1.40243e+07)
(-4.65633e+07 -47126 -1.62891e-09 -0.00104125 -5.21251e-08 -1.3969e+07)
(-4.63788e+07 -47126 0 -0.000330053 -5.21251e-08 -1.39137e+07)
(-4.61944e+07 -47126 -4.88673e-09 -0.000491641 1.56375e-07 -1.38583e+07)
(-4.601e+07 -47126 -3.25782e-09 -0.00152476 -5.21251e-08 -1.3803e+07)
(-4.58256e+07 -47126 0 -0.00396171 0 -1.37477e+07)
(-4.56412e+07 -47126 -1.62891e-09 -0.00418669 0 -1.36924e+07)
(-4.54568e+07 -47126 1.62891e-09 -0.00131564 -7.81877e-08 -1.3637e+07)
(-4.52724e+07 -47126 3.25782e-09 -3.08566e-05 -2.60626e-08 -1.35817e+07)
(-4.5088e+07 -47126 0 -0.000300657 2.60626e-08 -1.35264e+07)
(-4.49036e+07 -47126 -4.88673e-09 -0.000593182 -2.60626e-08 -1.34711e+07)
(-4.47192e+07 -47126 1.62891e-09 -0.000687424 2.60626e-08 -1.34158e+07)
(-4.45348e+07 -47126 0 0.000427011 -2.60626e-08 -1.33604e+07)
(-4.43504e+07 -47126 3.25782e-09 0.000172015 -2.60626e-08 -1.33051e+07)
(-4.4166e+07 -47126 -3.25782e-09 0.000363413 -7.81877e-08 -1.32498e+07)
(-4.39816e+07 -47126 -1.62891e-09 0.000793971 0 -1.31945e+07)
(-4.37972e+07 -47126 -1.62891e-09 0.000176806 0 -1.31391e+07)
(-4.36128e+07 -47126 -8.14455e-09 -0.000141572 -7.81877e-08 -1.30838e+07)
(-4.34284e+07 -47126 0 -0.000365082 0 -1.30285e+07)
(-4.32439e+07 -47126 0 -0.00051479 7.81877e-08 -1.29732e+07)
(-4.30595e+07 -47126 -1.62891e-09 -0.000408661 -2.60626e-08 -1.29179e+07)
(-4.28751e+07 -47126 1.62891e-09 -0.0007089 -2.60626e-08 -1.28625e+07)
(-4.26907e+07 -47126 -3.25782e-09 -0.000474129 -1.0425e-07 -1.28072e+07)
(-4.25063e+07 -47126 3.25782e-09 -0.000298992 -5.21251e-08 -1.27519e+07)
(-4.23219e+07 -47126 1.62891e-09 0.000131354 7.81877e-08 -1.26966e+07)
(-4.21375e+07 -47126 0 2.00197e-05 1.0425e-07 -1.26413e+07)
(-4.19531e+07 -47126 0 -0.000387814 -2.60626e-08 -1.25859e+07)
(-4.17687e+07 -47126 3.25782e-09 0.00023707 -1.30313e-07 -1.25306e+07)
(-4.15843e+07 -47126 1.62891e-09 -0.000493523 -5.21251e-08 -1.24753e+07)
(-4.13999e+07 -47126 -3.25782e-09 -0.000716202 0 -1.242e+07)
(-4.12155e+07 -47126 -1.62891e-09 -0.00088175 -2.60626e-08 -1.23646e+07)
(-4.10311e+07 -47126 4.88673e-09 -0.000496022 -5.21251e-08 -1.23093e+07)
(-4.08467e+07 -47126 3.25782e-09 0.000192035 -1.30313e-07 -1.2254e+07)
(-4.06623e+07 -47126 -1.62891e-09 -7.8395e-05 2.60626e-08 -1.21987e+07)
(-4.04779e+07 -47126 1.62891e-09 -0.000146367 7.81877e-08 -1.21434e+07)
(-4.02934e+07 -47126 -4.88673e-09 -0.000713073 0 -1.2088e+07)
(-4.0109e+07 -47126 0 -0.00108587 -2.60626e-08 -1.20327e+07)
(-3.99246e+07 -47126 1.62891e-09 -0.000846721 -5.21251e-08 -1.19774e+07)
(-3.97402e+07 -47126 3.25782e-09 -0.00205728 5.21251e-08 -1.19221e+07)
(-3.95558e+07 -47126 6.51564e-09 -0.00412331 -5.21251e-08 -1.18667e+07)