/*--------------------------------*- C++ -*----------------------------------*\
| =========                 |                                                 |
| \\      /  F ield         | foam-extend: Open Source CFD                    |
|  \\    /   O peration     | Version:     4.0                                |
|   \\  /    A nd           | Web:         http://www.foam-extend.org         |
|    \\/     M anipulation  |                                                 |
\*---------------------------------------------------------------------------*/
FoamFile
{
    version     2.0;
    format      ascii;
    class       volScalarField;
    location    "1";
    object      sigmaEq;
}
// * * * * * * * * * * * * * * * * * * * * * * * * * * * * * * * * * * * * * //

dimensions      [1 -1 -2 0 0 0 0];

internalField   nonuniform List<scalar> 
40960
(
1.10604e+08
1.02816e+08
9.94164e+07
9.80743e+07
9.78558e+07
9.81536e+07
9.86503e+07
9.91917e+07
9.9705e+07
1.00158e+08
1.00538e+08
1.00845e+08
1.01081e+08
1.01254e+08
1.01371e+08
1.01439e+08
1.01465e+08
1.01456e+08
1.01416e+08
1.01353e+08
1.01269e+08
1.01168e+08
1.01054e+08
1.00929e+08
1.00795e+08
1.00655e+08
1.00509e+08
1.00358e+08
1.00204e+08
1.00048e+08
9.98894e+07
9.97295e+07
9.95684e+07
9.94064e+07
9.92438e+07
9.90808e+07
9.89174e+07
9.87538e+07
9.859e+07
9.84261e+07
9.82621e+07
9.80981e+07
9.79341e+07
9.77701e+07
9.76061e+07
9.74421e+07
9.72781e+07
9.71141e+07
9.69501e+07
9.67861e+07
9.66221e+07
9.64582e+07
9.62942e+07
9.61303e+07
9.59664e+07
9.58024e+07
9.56385e+07
9.54746e+07
9.53107e+07
9.51468e+07
9.49829e+07
9.4819e+07
9.4655e+07
9.44911e+07
9.43272e+07
9.41633e+07
9.39994e+07
9.38355e+07
9.36716e+07
9.35077e+07
9.33438e+07
9.31799e+07
9.3016e+07
9.28521e+07
9.26882e+07
9.25243e+07
9.23604e+07
9.21965e+07
9.20326e+07
9.18687e+07
9.17048e+07
9.15409e+07
9.1377e+07
9.12131e+07
9.10492e+07
9.08853e+07
9.07214e+07
9.05574e+07
9.03935e+07
9.02296e+07
9.00657e+07
8.99018e+07
8.97379e+07
8.9574e+07
8.94101e+07
8.92462e+07
8.90823e+07
8.89184e+07
8.87545e+07
8.85906e+07
8.84267e+07
8.82628e+07
8.80989e+07
8.7935e+07
8.77711e+07
8.76072e+07
8.74433e+07
8.72794e+07
8.71155e+07
8.69516e+07
8.67877e+07
8.66238e+07
8.64599e+07
8.6296e+07
8.61321e+07
8.59681e+07
8.58042e+07
8.56403e+07
8.54764e+07
8.53125e+07
8.51486e+07
8.49847e+07
8.48208e+07
8.46569e+07
8.4493e+07
8.43291e+07
8.41652e+07
8.40013e+07
8.38374e+07
8.36735e+07
8.35096e+07
8.33457e+07
8.31818e+07
8.30179e+07
8.2854e+07
8.26901e+07
8.25262e+07
8.23623e+07
8.21984e+07
8.20345e+07
8.18706e+07
8.17067e+07
8.15428e+07
8.13788e+07
8.12149e+07
8.1051e+07
8.08871e+07
8.07232e+07
8.05593e+07
8.03954e+07
8.02315e+07
8.00676e+07
7.99037e+07
7.97398e+07
7.95759e+07
7.9412e+07
7.92481e+07
7.90842e+07
7.89203e+07
7.87564e+07
7.85925e+07
7.84286e+07
7.82647e+07
7.81008e+07
7.79369e+07
7.7773e+07
7.76091e+07
7.74452e+07
7.72813e+07
7.71174e+07
7.69535e+07
7.67896e+07
7.66256e+07
7.64617e+07
7.62978e+07
7.61339e+07
7.597e+07
7.58061e+07
7.56422e+07
7.54783e+07
7.53144e+07
7.51505e+07
7.49866e+07
7.48227e+07
7.46588e+07
7.44949e+07
7.4331e+07
7.41671e+07
7.40032e+07
7.38393e+07
7.36754e+07
7.35115e+07
7.33476e+07
7.31837e+07
7.30198e+07
7.28559e+07
7.2692e+07
7.25281e+07
7.23642e+07
7.22003e+07
7.20363e+07
7.18724e+07
7.17085e+07
7.15446e+07
7.13807e+07
7.12168e+07
7.10529e+07
7.0889e+07
7.07251e+07
7.05612e+07
7.03973e+07
7.02334e+07
7.00695e+07
6.99056e+07
6.97417e+07
6.95778e+07
6.94139e+07
6.925e+07
6.90861e+07
6.89222e+07
6.87583e+07
6.85944e+07
6.84305e+07
6.82666e+07
6.81027e+07
6.79388e+07
6.77749e+07
6.7611e+07
6.7447e+07
6.72831e+07
6.71192e+07
6.69553e+07
6.67914e+07
6.66275e+07
6.64636e+07
6.62997e+07
6.61358e+07
6.59719e+07
6.5808e+07
6.56441e+07
6.54802e+07
6.53163e+07
6.51524e+07
6.49885e+07
6.48246e+07
6.46607e+07
6.44968e+07
6.43329e+07
6.4169e+07
6.40051e+07
6.38412e+07
6.36773e+07
6.35134e+07
6.33495e+07
6.31856e+07
6.30217e+07
6.28578e+07
6.26938e+07
6.25299e+07
6.2366e+07
6.22021e+07
6.20382e+07
6.18743e+07
6.17104e+07
6.15465e+07
6.13826e+07
6.12187e+07
6.10548e+07
6.08909e+07
6.0727e+07
6.05631e+07
6.03992e+07
6.02353e+07
6.00714e+07
5.99075e+07
5.97436e+07
5.95797e+07
5.94158e+07
5.92519e+07
5.9088e+07
5.89241e+07
5.87602e+07
5.85963e+07
5.84324e+07
5.82685e+07
5.81046e+07
5.79406e+07
5.77767e+07
5.76128e+07
5.74489e+07
5.7285e+07
5.71211e+07
5.69572e+07
5.67933e+07
5.66294e+07
5.64655e+07
5.63016e+07
5.61377e+07
5.59738e+07
5.58099e+07
5.5646e+07
5.54821e+07
5.53182e+07
5.51543e+07
5.49904e+07
5.48265e+07
5.46626e+07
5.44987e+07
5.43348e+07
5.41709e+07
5.4007e+07
5.38431e+07
5.36792e+07
5.35153e+07
5.33514e+07
5.31874e+07
5.30235e+07
5.28596e+07
5.26957e+07
5.25318e+07
5.23679e+07
5.2204e+07
5.20401e+07
5.18762e+07
5.17123e+07
5.15484e+07
5.13845e+07
5.12206e+07
5.10567e+07
5.08928e+07
5.07289e+07
5.0565e+07
5.04011e+07
5.02372e+07
5.00733e+07
4.99094e+07
4.97455e+07
4.95816e+07
4.94177e+07
4.92538e+07
4.90899e+07
4.8926e+07
4.87621e+07
4.85982e+07
4.84342e+07
4.82703e+07
4.81064e+07
4.79425e+07
4.77786e+07
4.76147e+07
4.74508e+07
4.72869e+07
4.7123e+07
4.69591e+07
4.67952e+07
4.66313e+07
4.64674e+07
4.63035e+07
4.61396e+07
4.59757e+07
4.58118e+07
4.56479e+07
4.5484e+07
4.53201e+07
4.51562e+07
4.49923e+07
4.48284e+07
4.46645e+07
4.45006e+07
4.43367e+07
4.41728e+07
4.40089e+07
4.3845e+07
4.36811e+07
4.35171e+07
4.33532e+07
4.31893e+07
4.30254e+07
4.28615e+07
4.26976e+07
4.25337e+07
4.23698e+07
4.22059e+07
4.2042e+07
4.18781e+07
4.17142e+07
4.15503e+07
4.13864e+07
4.12225e+07
4.10586e+07
4.08947e+07
4.07308e+07
4.05669e+07
4.0403e+07
4.02391e+07
4.00752e+07
3.99113e+07
3.97474e+07
3.95835e+07
3.94196e+07
3.92557e+07
3.90918e+07
3.89279e+07
3.8764e+07
3.86e+07
3.84361e+07
3.82722e+07
3.81083e+07
3.79444e+07
3.77805e+07
3.76166e+07
3.74527e+07
3.72888e+07
3.71249e+07
3.6961e+07
3.67971e+07
3.66332e+07
3.64693e+07
3.63054e+07
3.61415e+07
3.59776e+07
3.58137e+07
3.56498e+07
3.54859e+07
3.5322e+07
3.51581e+07
3.49942e+07
3.48303e+07
3.46664e+07
3.45025e+07
3.43386e+07
3.41747e+07
3.40108e+07
3.38469e+07
3.3683e+07
3.3519e+07
3.33551e+07
3.31912e+07
3.30273e+07
3.28634e+07
3.26995e+07
3.25356e+07
3.23717e+07
3.22078e+07
3.20439e+07
3.188e+07
3.17161e+07
3.15522e+07
3.13883e+07
3.12244e+07
3.10605e+07
3.08966e+07
3.07327e+07
3.05688e+07
3.04049e+07
3.0241e+07
3.00771e+07
2.99132e+07
2.97493e+07
2.95854e+07
2.94215e+07
2.92576e+07
2.90937e+07
2.89298e+07
2.87659e+07
2.8602e+07
2.84381e+07
2.82742e+07
2.81102e+07
2.79463e+07
2.77824e+07
2.76185e+07
2.74546e+07
2.72907e+07
2.71268e+07
2.69629e+07
2.6799e+07
2.66351e+07
2.64712e+07
2.63073e+07
2.61434e+07
2.59795e+07
2.58156e+07
2.56517e+07
2.54878e+07
2.53239e+07
2.516e+07
2.49961e+07
2.48322e+07
2.46683e+07
2.45044e+07
2.43405e+07
2.41766e+07
2.40127e+07
2.38488e+07
2.36849e+07
2.3521e+07
2.33571e+07
2.31932e+07
2.30293e+07
2.28654e+07
2.27015e+07
2.25376e+07
2.23737e+07
2.22098e+07
2.20458e+07
2.18819e+07
2.1718e+07
2.15541e+07
2.13902e+07
2.12263e+07
2.10624e+07
2.08985e+07
2.07346e+07
2.05707e+07
2.04068e+07
2.02429e+07
2.0079e+07
1.99151e+07
1.97512e+07
1.95873e+07
1.94234e+07
1.92595e+07
1.90956e+07
1.89317e+07
1.87678e+07
1.86039e+07
1.844e+07
1.82761e+07
1.81122e+07
1.79483e+07
1.77844e+07
1.76205e+07
1.74566e+07
1.72927e+07
1.71288e+07
1.69649e+07
1.6801e+07
1.66371e+07
1.64732e+07
1.63093e+07
1.61454e+07
1.59815e+07
1.58176e+07
1.56537e+07
1.54898e+07
1.53259e+07
1.5162e+07
1.49981e+07
1.48342e+07
1.46703e+07
1.45064e+07
1.43425e+07
1.41786e+07
1.40147e+07
1.38508e+07
1.36869e+07
1.3523e+07
1.33591e+07
1.31952e+07
1.30313e+07
1.28674e+07
1.27035e+07
1.25396e+07
1.23757e+07
1.22118e+07
1.20479e+07
1.1884e+07
1.17201e+07
1.15562e+07
1.13923e+07
1.12284e+07
1.10645e+07
1.09006e+07
1.07367e+07
1.05728e+07
1.04089e+07
1.0245e+07
1.00811e+07
9.91716e+06
9.75327e+06
9.58937e+06
9.42547e+06
9.26157e+06
9.09767e+06
8.93377e+06
8.76988e+06
8.60598e+06
8.44208e+06
8.27818e+06
8.11428e+06
7.95038e+06
7.78648e+06
7.62258e+06
7.45867e+06
7.29477e+06
7.13086e+06
6.96696e+06
6.80305e+06
6.63914e+06
6.47524e+06
6.31133e+06
6.14743e+06
5.98353e+06
5.81964e+06
5.65577e+06
5.49191e+06
5.32809e+06
5.1643e+06
5.00057e+06
4.83692e+06
4.67338e+06
4.50997e+06
4.34676e+06
4.18379e+06
4.02114e+06
3.8589e+06
3.6972e+06
3.53618e+06
3.37602e+06
3.21695e+06
3.05923e+06
2.90321e+06
2.74928e+06
2.59792e+06
2.4497e+06
2.30529e+06
2.16548e+06
2.03118e+06
1.90341e+06
1.78334e+06
1.67224e+06
1.57141e+06
1.48215e+06
1.40546e+06
1.34164e+06
1.28955e+06
1.24636e+06
1.20904e+06
1.44248e+06
1.00904e+08
1.0216e+08
9.96931e+07
9.77858e+07
9.68805e+07
9.6612e+07
9.66772e+07
9.68958e+07
9.71681e+07
9.74409e+07
9.76865e+07
9.78923e+07
9.80538e+07
9.81711e+07
9.82469e+07
9.82851e+07
9.829e+07
9.82662e+07
9.82177e+07
9.81484e+07
9.80617e+07
9.79605e+07
9.78476e+07
9.77249e+07
9.75944e+07
9.74577e+07
9.73159e+07
9.71702e+07
9.70213e+07
9.687e+07
9.67168e+07
9.65622e+07
9.64064e+07
9.62498e+07
9.60925e+07
9.59348e+07
9.57767e+07
9.56184e+07
9.546e+07
9.53014e+07
9.51427e+07
9.4984e+07
9.48252e+07
9.46664e+07
9.45076e+07
9.43488e+07
9.41901e+07
9.40313e+07
9.38725e+07
9.37138e+07
9.3555e+07
9.33963e+07
9.32375e+07
9.30788e+07
9.29201e+07
9.27614e+07
9.26027e+07
9.24439e+07
9.22852e+07
9.21265e+07
9.19678e+07
9.18091e+07
9.16504e+07
9.14917e+07
9.1333e+07
9.11743e+07
9.10156e+07
9.08569e+07
9.06982e+07
9.05395e+07
9.03808e+07
9.02221e+07
9.00634e+07
8.99047e+07
8.9746e+07
8.95873e+07
8.94286e+07
8.92699e+07
8.91112e+07
8.89525e+07
8.87938e+07
8.86351e+07
8.84764e+07
8.83177e+07
8.8159e+07
8.80003e+07
8.78416e+07
8.76829e+07
8.75242e+07
8.73655e+07
8.72068e+07
8.70481e+07
8.68894e+07
8.67307e+07
8.6572e+07
8.64133e+07
8.62546e+07
8.60959e+07
8.59372e+07
8.57785e+07
8.56198e+07
8.54611e+07
8.53024e+07
8.51437e+07
8.4985e+07
8.48263e+07
8.46676e+07
8.45089e+07
8.43502e+07
8.41915e+07
8.40328e+07
8.38741e+07
8.37154e+07
8.35567e+07
8.3398e+07
8.32393e+07
8.30806e+07
8.29219e+07
8.27632e+07
8.26045e+07
8.24458e+07
8.22871e+07
8.21284e+07
8.19697e+07
8.1811e+07
8.16523e+07
8.14936e+07
8.13349e+07
8.11762e+07
8.10175e+07
8.08588e+07
8.07001e+07
8.05414e+07
8.03827e+07
8.0224e+07
8.00653e+07
7.99066e+07
7.97479e+07
7.95892e+07
7.94305e+07
7.92718e+07
7.91131e+07
7.89544e+07
7.87957e+07
7.8637e+07
7.84783e+07
7.83196e+07
7.81609e+07
7.80022e+07
7.78435e+07
7.76848e+07
7.75261e+07
7.73674e+07
7.72087e+07
7.705e+07
7.68913e+07
7.67326e+07
7.65739e+07
7.64152e+07
7.62565e+07
7.60978e+07
7.59391e+07
7.57804e+07
7.56217e+07
7.5463e+07
7.53043e+07
7.51456e+07
7.49869e+07
7.48282e+07
7.46695e+07
7.45108e+07
7.43521e+07
7.41934e+07
7.40347e+07
7.3876e+07
7.37173e+07
7.35586e+07
7.33999e+07
7.32412e+07
7.30825e+07
7.29238e+07
7.27651e+07
7.26064e+07
7.24477e+07
7.2289e+07
7.21303e+07
7.19716e+07
7.18129e+07
7.16542e+07
7.14955e+07
7.13368e+07
7.11781e+07
7.10194e+07
7.08607e+07
7.0702e+07
7.05433e+07
7.03846e+07
7.02259e+07
7.00672e+07
6.99085e+07
6.97498e+07
6.95911e+07
6.94324e+07
6.92737e+07
6.9115e+07
6.89563e+07
6.87976e+07
6.86389e+07
6.84802e+07
6.83215e+07
6.81629e+07
6.80042e+07
6.78455e+07
6.76868e+07
6.75281e+07
6.73694e+07
6.72107e+07
6.7052e+07
6.68933e+07
6.67346e+07
6.65759e+07
6.64172e+07
6.62585e+07
6.60998e+07
6.59411e+07
6.57824e+07
6.56237e+07
6.5465e+07
6.53063e+07
6.51476e+07
6.49889e+07
6.48302e+07
6.46715e+07
6.45128e+07
6.43541e+07
6.41954e+07
6.40367e+07
6.3878e+07
6.37193e+07
6.35606e+07
6.34019e+07
6.32432e+07
6.30845e+07
6.29258e+07
6.27671e+07
6.26084e+07
6.24497e+07
6.2291e+07
6.21323e+07
6.19736e+07
6.18149e+07
6.16562e+07
6.14975e+07
6.13388e+07
6.11801e+07
6.10214e+07
6.08627e+07
6.0704e+07
6.05453e+07
6.03866e+07
6.02279e+07
6.00692e+07
5.99105e+07
5.97518e+07
5.95931e+07
5.94344e+07
5.92757e+07
5.9117e+07
5.89583e+07
5.87996e+07
5.86409e+07
5.84822e+07
5.83235e+07
5.81648e+07
5.80061e+07
5.78474e+07
5.76887e+07
5.753e+07
5.73713e+07
5.72126e+07
5.70539e+07
5.68952e+07
5.67365e+07
5.65778e+07
5.64191e+07
5.62604e+07
5.61017e+07
5.5943e+07
5.57843e+07
5.56256e+07
5.54669e+07
5.53082e+07
5.51495e+07
5.49908e+07
5.48321e+07
5.46734e+07
5.45147e+07
5.4356e+07
5.41973e+07
5.40386e+07
5.38799e+07
5.37212e+07
5.35625e+07
5.34038e+07
5.32451e+07
5.30864e+07
5.29277e+07
5.2769e+07
5.26103e+07
5.24516e+07
5.22929e+07
5.21342e+07
5.19755e+07
5.18168e+07
5.16581e+07
5.14995e+07
5.13408e+07
5.11821e+07
5.10234e+07
5.08647e+07
5.0706e+07
5.05473e+07
5.03886e+07
5.02299e+07
5.00712e+07
4.99125e+07
4.97538e+07
4.95951e+07
4.94364e+07
4.92777e+07
4.9119e+07
4.89603e+07
4.88016e+07
4.86429e+07
4.84842e+07
4.83255e+07
4.81668e+07
4.80081e+07
4.78494e+07
4.76907e+07
4.7532e+07
4.73733e+07
4.72146e+07
4.70559e+07
4.68972e+07
4.67385e+07
4.65798e+07
4.64211e+07
4.62624e+07
4.61037e+07
4.5945e+07
4.57863e+07
4.56276e+07
4.54689e+07
4.53102e+07
4.51515e+07
4.49928e+07
4.48341e+07
4.46754e+07
4.45167e+07
4.4358e+07
4.41993e+07
4.40406e+07
4.38819e+07
4.37232e+07
4.35645e+07
4.34058e+07
4.32471e+07
4.30884e+07
4.29297e+07
4.2771e+07
4.26123e+07
4.24536e+07
4.2295e+07
4.21363e+07
4.19776e+07
4.18189e+07
4.16602e+07
4.15015e+07
4.13428e+07
4.11841e+07
4.10254e+07
4.08667e+07
4.0708e+07
4.05493e+07
4.03906e+07
4.02319e+07
4.00732e+07
3.99145e+07
3.97558e+07
3.95971e+07
3.94384e+07
3.92797e+07
3.9121e+07
3.89623e+07
3.88036e+07
3.86449e+07
3.84862e+07
3.83275e+07
3.81688e+07
3.80101e+07
3.78514e+07
3.76927e+07
3.7534e+07
3.73753e+07
3.72166e+07
3.70579e+07
3.68992e+07
3.67405e+07
3.65818e+07
3.64231e+07
3.62645e+07
3.61058e+07
3.59471e+07
3.57884e+07
3.56297e+07
3.5471e+07
3.53123e+07
3.51536e+07
3.49949e+07
3.48362e+07
3.46775e+07
3.45188e+07
3.43601e+07
3.42014e+07
3.40427e+07
3.3884e+07
3.37253e+07
3.35666e+07
3.34079e+07
3.32492e+07
3.30905e+07
3.29318e+07
3.27731e+07
3.26144e+07
3.24557e+07
3.2297e+07
3.21383e+07
3.19796e+07
3.1821e+07
3.16623e+07
3.15036e+07
3.13449e+07
3.11862e+07
3.10275e+07
3.08688e+07
3.07101e+07
3.05514e+07
3.03927e+07
3.0234e+07
3.00753e+07
2.99166e+07
2.97579e+07
2.95992e+07
2.94405e+07
2.92818e+07
2.91231e+07
2.89644e+07
2.88057e+07
2.8647e+07
2.84883e+07
2.83297e+07
2.8171e+07
2.80123e+07
2.78536e+07
2.76949e+07
2.75362e+07
2.73775e+07
2.72188e+07
2.70601e+07
2.69014e+07
2.67427e+07
2.6584e+07
2.64253e+07
2.62666e+07
2.61079e+07
2.59492e+07
2.57905e+07
2.56319e+07
2.54732e+07
2.53145e+07
2.51558e+07
2.49971e+07
2.48384e+07
2.46797e+07
2.4521e+07
2.43623e+07
2.42036e+07
2.40449e+07
2.38862e+07
2.37275e+07
2.35688e+07
2.34102e+07
2.32515e+07
2.30928e+07
2.29341e+07
2.27754e+07
2.26167e+07
2.2458e+07
2.22993e+07
2.21406e+07
2.19819e+07
2.18232e+07
2.16646e+07
2.15059e+07
2.13472e+07
2.11885e+07
2.10298e+07
2.08711e+07
2.07124e+07
2.05537e+07
2.0395e+07
2.02363e+07
2.00777e+07
1.9919e+07
1.97603e+07
1.96016e+07
1.94429e+07
1.92842e+07
1.91255e+07
1.89668e+07
1.88081e+07
1.86495e+07
1.84908e+07
1.83321e+07
1.81734e+07
1.80147e+07
1.7856e+07
1.76973e+07
1.75387e+07
1.738e+07
1.72213e+07
1.70626e+07
1.69039e+07
1.67452e+07
1.65865e+07
1.64279e+07
1.62692e+07
1.61105e+07
1.59518e+07
1.57931e+07
1.56344e+07
1.54758e+07
1.53171e+07
1.51584e+07
1.49997e+07
1.4841e+07
1.46824e+07
1.45237e+07
1.4365e+07
1.42063e+07
1.40476e+07
1.3889e+07
1.37303e+07
1.35716e+07
1.34129e+07
1.32543e+07
1.30956e+07
1.29369e+07
1.27782e+07
1.26196e+07
1.24609e+07
1.23022e+07
1.21436e+07
1.19849e+07
1.18262e+07
1.16676e+07
1.15089e+07
1.13502e+07
1.11916e+07
1.10329e+07
1.08742e+07
1.07156e+07
1.05569e+07
1.03983e+07
1.02396e+07
1.00809e+07
9.92228e+06
9.76363e+06
9.60498e+06
9.44633e+06
9.28768e+06
9.12903e+06
8.97038e+06
8.81174e+06
8.6531e+06
8.49446e+06
8.33582e+06
8.17718e+06
8.01855e+06
7.85991e+06
7.70128e+06
7.54266e+06
7.38403e+06
7.22541e+06
7.06679e+06
6.90817e+06
6.74956e+06
6.59095e+06
6.43234e+06
6.27375e+06
6.11515e+06
5.95657e+06
5.798e+06
5.63945e+06
5.48092e+06
5.32242e+06
5.16396e+06
5.00554e+06
4.8472e+06
4.68894e+06
4.53079e+06
4.37279e+06
4.21498e+06
4.05741e+06
3.90016e+06
3.7433e+06
3.58694e+06
3.43121e+06
3.27627e+06
3.1223e+06
2.96953e+06
2.81823e+06
2.66873e+06
2.5214e+06
2.37667e+06
2.23503e+06
2.09704e+06
1.96329e+06
1.83439e+06
1.71094e+06
1.59341e+06
1.48201e+06
1.37628e+06
1.27447e+06
1.17231e+06
1.06187e+06
941297
940916
1.80671e+06
8.72661e+07
9.58953e+07
9.68421e+07
9.59994e+07
9.51971e+07
9.47372e+07
9.45547e+07
9.45437e+07
9.46231e+07
9.47399e+07
9.48622e+07
9.49714e+07
9.50581e+07
9.5118e+07
9.51501e+07
9.51555e+07
9.51363e+07
9.5095e+07
9.50343e+07
9.49569e+07
9.48654e+07
9.47618e+07
9.46484e+07
9.45268e+07
9.43984e+07
9.42647e+07
9.41265e+07
9.39849e+07
9.38405e+07
9.36939e+07
9.35456e+07
9.3396e+07
9.32453e+07
9.30939e+07
9.29418e+07
9.27894e+07
9.26366e+07
9.24835e+07
9.23303e+07
9.2177e+07
9.20235e+07
9.18701e+07
9.17165e+07
9.1563e+07
9.14095e+07
9.12559e+07
9.11023e+07
9.09488e+07
9.07952e+07
9.06417e+07
9.04882e+07
9.03346e+07
9.01811e+07
9.00276e+07
8.98741e+07
8.97206e+07
8.9567e+07
8.94135e+07
8.926e+07
8.91065e+07
8.8953e+07
8.87995e+07
8.8646e+07
8.84925e+07
8.8339e+07
8.81855e+07
8.8032e+07
8.78785e+07
8.77251e+07
8.75716e+07
8.74181e+07
8.72646e+07
8.71111e+07
8.69576e+07
8.68041e+07
8.66506e+07
8.64971e+07
8.63436e+07
8.61901e+07
8.60366e+07
8.58831e+07
8.57296e+07
8.55761e+07
8.54226e+07
8.52691e+07
8.51156e+07
8.49621e+07
8.48086e+07
8.46551e+07
8.45016e+07
8.43481e+07
8.41947e+07
8.40412e+07
8.38877e+07
8.37342e+07
8.35807e+07
8.34272e+07
8.32737e+07
8.31202e+07
8.29667e+07
8.28132e+07
8.26597e+07
8.25062e+07
8.23527e+07
8.21992e+07
8.20457e+07
8.18922e+07
8.17387e+07
8.15852e+07
8.14317e+07
8.12782e+07
8.11247e+07
8.09713e+07
8.08178e+07
8.06643e+07
8.05108e+07
8.03573e+07
8.02038e+07
8.00503e+07
7.98968e+07
7.97433e+07
7.95898e+07
7.94363e+07
7.92828e+07
7.91293e+07
7.89758e+07
7.88223e+07
7.86688e+07
7.85153e+07
7.83618e+07
7.82083e+07
7.80548e+07
7.79013e+07
7.77479e+07
7.75944e+07
7.74409e+07
7.72874e+07
7.71339e+07
7.69804e+07
7.68269e+07
7.66734e+07
7.65199e+07
7.63664e+07
7.62129e+07
7.60594e+07
7.59059e+07
7.57524e+07
7.55989e+07
7.54454e+07
7.52919e+07
7.51384e+07
7.49849e+07
7.48314e+07
7.4678e+07
7.45245e+07
7.4371e+07
7.42175e+07
7.4064e+07
7.39105e+07
7.3757e+07
7.36035e+07
7.345e+07
7.32965e+07
7.3143e+07
7.29895e+07
7.2836e+07
7.26825e+07
7.2529e+07
7.23755e+07
7.2222e+07
7.20685e+07
7.1915e+07
7.17616e+07
7.16081e+07
7.14546e+07
7.13011e+07
7.11476e+07
7.09941e+07
7.08406e+07
7.06871e+07
7.05336e+07
7.03801e+07
7.02266e+07
7.00731e+07
6.99196e+07
6.97661e+07
6.96126e+07
6.94591e+07
6.93056e+07
6.91521e+07
6.89986e+07
6.88452e+07
6.86917e+07
6.85382e+07
6.83847e+07
6.82312e+07
6.80777e+07
6.79242e+07
6.77707e+07
6.76172e+07
6.74637e+07
6.73102e+07
6.71567e+07
6.70032e+07
6.68497e+07
6.66962e+07
6.65427e+07
6.63892e+07
6.62357e+07
6.60823e+07
6.59288e+07
6.57753e+07
6.56218e+07
6.54683e+07
6.53148e+07
6.51613e+07
6.50078e+07
6.48543e+07
6.47008e+07
6.45473e+07
6.43938e+07
6.42403e+07
6.40868e+07
6.39333e+07
6.37798e+07
6.36263e+07
6.34728e+07
6.33194e+07
6.31659e+07
6.30124e+07
6.28589e+07
6.27054e+07
6.25519e+07
6.23984e+07
6.22449e+07
6.20914e+07
6.19379e+07
6.17844e+07
6.16309e+07
6.14774e+07
6.13239e+07
6.11704e+07
6.10169e+07
6.08635e+07
6.071e+07
6.05565e+07
6.0403e+07
6.02495e+07
6.0096e+07
5.99425e+07
5.9789e+07
5.96355e+07
5.9482e+07
5.93285e+07
5.9175e+07
5.90215e+07
5.8868e+07
5.87145e+07
5.8561e+07
5.84076e+07
5.82541e+07
5.81006e+07
5.79471e+07
5.77936e+07
5.76401e+07
5.74866e+07
5.73331e+07
5.71796e+07
5.70261e+07
5.68726e+07
5.67191e+07
5.65656e+07
5.64121e+07
5.62586e+07
5.61051e+07
5.59517e+07
5.57982e+07
5.56447e+07
5.54912e+07
5.53377e+07
5.51842e+07
5.50307e+07
5.48772e+07
5.47237e+07
5.45702e+07
5.44167e+07
5.42632e+07
5.41097e+07
5.39562e+07
5.38028e+07
5.36493e+07
5.34958e+07
5.33423e+07
5.31888e+07
5.30353e+07
5.28818e+07
5.27283e+07
5.25748e+07
5.24213e+07
5.22678e+07
5.21143e+07
5.19608e+07
5.18073e+07
5.16539e+07
5.15004e+07
5.13469e+07
5.11934e+07
5.10399e+07
5.08864e+07
5.07329e+07
5.05794e+07
5.04259e+07
5.02724e+07
5.01189e+07
4.99654e+07
4.98119e+07
4.96584e+07
4.9505e+07
4.93515e+07
4.9198e+07
4.90445e+07
4.8891e+07
4.87375e+07
4.8584e+07
4.84305e+07
4.8277e+07
4.81235e+07
4.797e+07
4.78165e+07
4.76631e+07
4.75096e+07
4.73561e+07
4.72026e+07
4.70491e+07
4.68956e+07
4.67421e+07
4.65886e+07
4.64351e+07
4.62816e+07
4.61281e+07
4.59746e+07
4.58212e+07
4.56677e+07
4.55142e+07
4.53607e+07
4.52072e+07
4.50537e+07
4.49002e+07
4.47467e+07
4.45932e+07
4.44397e+07
4.42862e+07
4.41327e+07
4.39793e+07
4.38258e+07
4.36723e+07
4.35188e+07
4.33653e+07
4.32118e+07
4.30583e+07
4.29048e+07
4.27513e+07
4.25978e+07
4.24444e+07
4.22909e+07
4.21374e+07
4.19839e+07
4.18304e+07
4.16769e+07
4.15234e+07
4.13699e+07
4.12164e+07
4.10629e+07
4.09094e+07
4.0756e+07
4.06025e+07
4.0449e+07
4.02955e+07
4.0142e+07
3.99885e+07
3.9835e+07
3.96815e+07
3.9528e+07
3.93745e+07
3.92211e+07
3.90676e+07
3.89141e+07
3.87606e+07
3.86071e+07
3.84536e+07
3.83001e+07
3.81466e+07
3.79931e+07
3.78397e+07
3.76862e+07
3.75327e+07
3.73792e+07
3.72257e+07
3.70722e+07
3.69187e+07
3.67652e+07
3.66117e+07
3.64583e+07
3.63048e+07
3.61513e+07
3.59978e+07
3.58443e+07
3.56908e+07
3.55373e+07
3.53838e+07
3.52304e+07
3.50769e+07
3.49234e+07
3.47699e+07
3.46164e+07
3.44629e+07
3.43094e+07
3.41559e+07
3.40025e+07
3.3849e+07
3.36955e+07
3.3542e+07
3.33885e+07
3.3235e+07
3.30815e+07
3.29281e+07
3.27746e+07
3.26211e+07
3.24676e+07
3.23141e+07
3.21606e+07
3.20071e+07
3.18537e+07
3.17002e+07
3.15467e+07
3.13932e+07
3.12397e+07
3.10862e+07
3.09327e+07
3.07793e+07
3.06258e+07
3.04723e+07
3.03188e+07
3.01653e+07
3.00118e+07
2.98584e+07
2.97049e+07
2.95514e+07
2.93979e+07
2.92444e+07
2.90909e+07
2.89375e+07
2.8784e+07
2.86305e+07
2.8477e+07
2.83235e+07
2.817e+07
2.80166e+07
2.78631e+07
2.77096e+07
2.75561e+07
2.74026e+07
2.72491e+07
2.70957e+07
2.69422e+07
2.67887e+07
2.66352e+07
2.64817e+07
2.63283e+07
2.61748e+07
2.60213e+07
2.58678e+07
2.57143e+07
2.55609e+07
2.54074e+07
2.52539e+07
2.51004e+07
2.49469e+07
2.47935e+07
2.464e+07
2.44865e+07
2.4333e+07
2.41796e+07
2.40261e+07
2.38726e+07
2.37191e+07
2.35657e+07
2.34122e+07
2.32587e+07
2.31052e+07
2.29518e+07
2.27983e+07
2.26448e+07
2.24913e+07
2.23379e+07
2.21844e+07
2.20309e+07
2.18774e+07
2.1724e+07
2.15705e+07
2.1417e+07
2.12636e+07
2.11101e+07
2.09566e+07
2.08031e+07
2.06497e+07
2.04962e+07
2.03427e+07
2.01893e+07
2.00358e+07
1.98823e+07
1.97289e+07
1.95754e+07
1.94219e+07
1.92685e+07
1.9115e+07
1.89615e+07
1.88081e+07
1.86546e+07
1.85011e+07
1.83477e+07
1.81942e+07
1.80408e+07
1.78873e+07
1.77338e+07
1.75804e+07
1.74269e+07
1.72735e+07
1.712e+07
1.69665e+07
1.68131e+07
1.66596e+07
1.65062e+07
1.63527e+07
1.61993e+07
1.60458e+07
1.58924e+07
1.57389e+07
1.55855e+07
1.5432e+07
1.52786e+07
1.51251e+07
1.49717e+07
1.48182e+07
1.46648e+07
1.45114e+07
1.43579e+07
1.42045e+07
1.4051e+07
1.38976e+07
1.37442e+07
1.35907e+07
1.34373e+07
1.32839e+07
1.31304e+07
1.2977e+07
1.28236e+07
1.26702e+07
1.25167e+07
1.23633e+07
1.22099e+07
1.20565e+07
1.19031e+07
1.17496e+07
1.15962e+07
1.14428e+07
1.12894e+07
1.1136e+07
1.09826e+07
1.08292e+07
1.06758e+07
1.05224e+07
1.0369e+07
1.02157e+07
1.00623e+07
9.90889e+06
9.75551e+06
9.60214e+06
9.44877e+06
9.29541e+06
9.14205e+06
8.9887e+06
8.83535e+06
8.682e+06
8.52866e+06
8.37533e+06
8.222e+06
8.06868e+06
7.91536e+06
7.76205e+06
7.60875e+06
7.45546e+06
7.30217e+06
7.1489e+06
6.99563e+06
6.84237e+06
6.68912e+06
6.53589e+06
6.38266e+06
6.22945e+06
6.07626e+06
5.92309e+06
5.76993e+06
5.6168e+06
5.4637e+06
5.31064e+06
5.15762e+06
5.00465e+06
4.85175e+06
4.69893e+06
4.54621e+06
4.39361e+06
4.24117e+06
4.08892e+06
3.93692e+06
3.78521e+06
3.63388e+06
3.483e+06
3.33269e+06
3.18307e+06
3.03429e+06
2.88651e+06
2.73996e+06
2.59485e+06
2.45145e+06
2.31005e+06
2.17095e+06
2.03448e+06
1.90094e+06
1.77056e+06
1.64349e+06
1.5196e+06
1.39837e+06
1.27853e+06
1.15773e+06
1.03307e+06
907840
834261
1.05113e+06
1.85553e+06
7.76236e+07
8.8647e+07
9.23621e+07
9.3028e+07
9.28027e+07
9.24635e+07
9.22173e+07
9.20822e+07
9.20287e+07
9.20237e+07
9.20414e+07
9.20641e+07
9.20806e+07
9.20846e+07
9.20728e+07
9.20442e+07
9.19991e+07
9.19384e+07
9.18636e+07
9.17763e+07
9.16782e+07
9.15708e+07
9.14556e+07
9.13339e+07
9.12068e+07
9.10752e+07
9.094e+07
9.0802e+07
9.06616e+07
9.05193e+07
9.03756e+07
9.02308e+07
9.00851e+07
8.99387e+07
8.97917e+07
8.96444e+07
8.94968e+07
8.9349e+07
8.9201e+07
8.90529e+07
8.89047e+07
8.87564e+07
8.86082e+07
8.84599e+07
8.83115e+07
8.81632e+07
8.80149e+07
8.78666e+07
8.77182e+07
8.75699e+07
8.74216e+07
8.72733e+07
8.71249e+07
8.69766e+07
8.68283e+07
8.668e+07
8.65317e+07
8.63834e+07
8.62351e+07
8.60868e+07
8.59385e+07
8.57902e+07
8.56419e+07
8.54936e+07
8.53454e+07
8.51971e+07
8.50488e+07
8.49005e+07
8.47522e+07
8.46039e+07
8.44556e+07
8.43073e+07
8.4159e+07
8.40107e+07
8.38624e+07
8.37141e+07
8.35659e+07
8.34176e+07
8.32693e+07
8.3121e+07
8.29727e+07
8.28244e+07
8.26761e+07
8.25278e+07
8.23795e+07
8.22312e+07
8.2083e+07
8.19347e+07
8.17864e+07
8.16381e+07
8.14898e+07
8.13415e+07
8.11932e+07
8.10449e+07
8.08966e+07
8.07483e+07
8.06e+07
8.04518e+07
8.03035e+07
8.01552e+07
8.00069e+07
7.98586e+07
7.97103e+07
7.9562e+07
7.94137e+07
7.92654e+07
7.91171e+07
7.89689e+07
7.88206e+07
7.86723e+07
7.8524e+07
7.83757e+07
7.82274e+07
7.80791e+07
7.79308e+07
7.77825e+07
7.76342e+07
7.7486e+07
7.73377e+07
7.71894e+07
7.70411e+07
7.68928e+07
7.67445e+07
7.65962e+07
7.64479e+07
7.62996e+07
7.61513e+07
7.6003e+07
7.58548e+07
7.57065e+07
7.55582e+07
7.54099e+07
7.52616e+07
7.51133e+07
7.4965e+07
7.48167e+07
7.46684e+07
7.45201e+07
7.43719e+07
7.42236e+07
7.40753e+07
7.3927e+07
7.37787e+07
7.36304e+07
7.34821e+07
7.33338e+07
7.31855e+07
7.30373e+07
7.2889e+07
7.27407e+07
7.25924e+07
7.24441e+07
7.22958e+07
7.21475e+07
7.19992e+07
7.18509e+07
7.17026e+07
7.15544e+07
7.14061e+07
7.12578e+07
7.11095e+07
7.09612e+07
7.08129e+07
7.06646e+07
7.05163e+07
7.0368e+07
7.02197e+07
7.00715e+07
6.99232e+07
6.97749e+07
6.96266e+07
6.94783e+07
6.933e+07
6.91817e+07
6.90334e+07
6.88851e+07
6.87369e+07
6.85886e+07
6.84403e+07
6.8292e+07
6.81437e+07
6.79954e+07
6.78471e+07
6.76988e+07
6.75505e+07
6.74023e+07
6.7254e+07
6.71057e+07
6.69574e+07
6.68091e+07
6.66608e+07
6.65125e+07
6.63642e+07
6.62159e+07
6.60677e+07
6.59194e+07
6.57711e+07
6.56228e+07
6.54745e+07
6.53262e+07
6.51779e+07
6.50296e+07
6.48813e+07
6.47331e+07
6.45848e+07
6.44365e+07
6.42882e+07
6.41399e+07
6.39916e+07
6.38433e+07
6.3695e+07
6.35467e+07
6.33985e+07
6.32502e+07
6.31019e+07
6.29536e+07
6.28053e+07
6.2657e+07
6.25087e+07
6.23604e+07
6.22122e+07
6.20639e+07
6.19156e+07
6.17673e+07
6.1619e+07
6.14707e+07
6.13224e+07
6.11741e+07
6.10258e+07
6.08776e+07
6.07293e+07
6.0581e+07
6.04327e+07
6.02844e+07
6.01361e+07
5.99878e+07
5.98395e+07
5.96913e+07
5.9543e+07
5.93947e+07
5.92464e+07
5.90981e+07
5.89498e+07
5.88015e+07
5.86532e+07
5.8505e+07
5.83567e+07
5.82084e+07
5.80601e+07
5.79118e+07
5.77635e+07
5.76152e+07
5.74669e+07
5.73187e+07
5.71704e+07
5.70221e+07
5.68738e+07
5.67255e+07
5.65772e+07
5.64289e+07
5.62806e+07
5.61324e+07
5.59841e+07
5.58358e+07
5.56875e+07
5.55392e+07
5.53909e+07
5.52426e+07
5.50944e+07
5.49461e+07
5.47978e+07
5.46495e+07
5.45012e+07
5.43529e+07
5.42046e+07
5.40563e+07
5.39081e+07
5.37598e+07
5.36115e+07
5.34632e+07
5.33149e+07
5.31666e+07
5.30183e+07
5.28701e+07
5.27218e+07
5.25735e+07
5.24252e+07
5.22769e+07
5.21286e+07
5.19803e+07
5.18321e+07
5.16838e+07
5.15355e+07
5.13872e+07
5.12389e+07
5.10906e+07
5.09423e+07
5.07941e+07
5.06458e+07
5.04975e+07
5.03492e+07
5.02009e+07
5.00526e+07
4.99043e+07
4.97561e+07
4.96078e+07
4.94595e+07
4.93112e+07
4.91629e+07
4.90146e+07
4.88663e+07
4.87181e+07
4.85698e+07
4.84215e+07
4.82732e+07
4.81249e+07
4.79766e+07
4.78284e+07
4.76801e+07
4.75318e+07
4.73835e+07
4.72352e+07
4.70869e+07
4.69387e+07
4.67904e+07
4.66421e+07
4.64938e+07
4.63455e+07
4.61972e+07
4.60489e+07
4.59007e+07
4.57524e+07
4.56041e+07
4.54558e+07
4.53075e+07
4.51592e+07
4.5011e+07
4.48627e+07
4.47144e+07
4.45661e+07
4.44178e+07
4.42696e+07
4.41213e+07
4.3973e+07
4.38247e+07
4.36764e+07
4.35281e+07
4.33799e+07
4.32316e+07
4.30833e+07
4.2935e+07
4.27867e+07
4.26384e+07
4.24902e+07
4.23419e+07
4.21936e+07
4.20453e+07
4.1897e+07
4.17488e+07
4.16005e+07
4.14522e+07
4.13039e+07
4.11556e+07
4.10073e+07
4.08591e+07
4.07108e+07
4.05625e+07
4.04142e+07
4.02659e+07
4.01177e+07
3.99694e+07
3.98211e+07
3.96728e+07
3.95245e+07
3.93763e+07
3.9228e+07
3.90797e+07
3.89314e+07
3.87831e+07
3.86349e+07
3.84866e+07
3.83383e+07
3.819e+07
3.80417e+07
3.78935e+07
3.77452e+07
3.75969e+07
3.74486e+07
3.73004e+07
3.71521e+07
3.70038e+07
3.68555e+07
3.67072e+07
3.6559e+07
3.64107e+07
3.62624e+07
3.61141e+07
3.59659e+07
3.58176e+07
3.56693e+07
3.5521e+07
3.53727e+07
3.52245e+07
3.50762e+07
3.49279e+07
3.47796e+07
3.46314e+07
3.44831e+07
3.43348e+07
3.41865e+07
3.40383e+07
3.389e+07
3.37417e+07
3.35934e+07
3.34452e+07
3.32969e+07
3.31486e+07
3.30003e+07
3.28521e+07
3.27038e+07
3.25555e+07
3.24072e+07
3.2259e+07
3.21107e+07
3.19624e+07
3.18142e+07
3.16659e+07
3.15176e+07
3.13693e+07
3.12211e+07
3.10728e+07
3.09245e+07
3.07763e+07
3.0628e+07
3.04797e+07
3.03314e+07
3.01832e+07
3.00349e+07
2.98866e+07
2.97384e+07
2.95901e+07
2.94418e+07
2.92936e+07
2.91453e+07
2.8997e+07
2.88487e+07
2.87005e+07
2.85522e+07
2.84039e+07
2.82557e+07
2.81074e+07
2.79591e+07
2.78109e+07
2.76626e+07
2.75143e+07
2.73661e+07
2.72178e+07
2.70696e+07
2.69213e+07
2.6773e+07
2.66248e+07
2.64765e+07
2.63282e+07
2.618e+07
2.60317e+07
2.58834e+07
2.57352e+07
2.55869e+07
2.54387e+07
2.52904e+07
2.51421e+07
2.49939e+07
2.48456e+07
2.46974e+07
2.45491e+07
2.44008e+07
2.42526e+07
2.41043e+07
2.39561e+07
2.38078e+07
2.36596e+07
2.35113e+07
2.33631e+07
2.32148e+07
2.30665e+07
2.29183e+07
2.277e+07
2.26218e+07
2.24735e+07
2.23253e+07
2.2177e+07
2.20288e+07
2.18805e+07
2.17323e+07
2.1584e+07
2.14358e+07
2.12875e+07
2.11393e+07
2.09911e+07
2.08428e+07
2.06946e+07
2.05463e+07
2.03981e+07
2.02498e+07
2.01016e+07
1.99534e+07
1.98051e+07
1.96569e+07
1.95086e+07
1.93604e+07
1.92122e+07
1.90639e+07
1.89157e+07
1.87675e+07
1.86192e+07
1.8471e+07
1.83228e+07
1.81745e+07
1.80263e+07
1.78781e+07
1.77299e+07
1.75816e+07
1.74334e+07
1.72852e+07
1.7137e+07
1.69887e+07
1.68405e+07
1.66923e+07
1.65441e+07
1.63959e+07
1.62477e+07
1.60995e+07