/*--------------------------------*- C++ -*----------------------------------*\
| =========                 |                                                 |
| \\      /  F ield         | OpenFOAM: The Open Source CFD Toolbox           |
|  \\    /   O peration     | Version:  v1912                                 |
|   \\  /    A nd           | Website:  www.openfoam.com                      |
|    \\/     M anipulation  |                                                 |
\*---------------------------------------------------------------------------*/
FoamFile
{
    version     2.0;
    format      ascii;
    class       volVectorField;
    location    "1";
    object      D;
}
// * * * * * * * * * * * * * * * * * * * * * * * * * * * * * * * * * * * * * //

dimensions      [0 1 0 0 0 0 0];


internalField   nonuniform List<vector> 
2560
(
(-3.49847e-06 -2.80035e-06 0)
(-9.36863e-06 -5.36733e-06 0)
(-1.56133e-05 -9.0986e-06 0)
(-2.16971e-05 -1.42692e-05 0)
(-2.78516e-05 -2.10341e-05 0)
(-3.39585e-05 -2.94222e-05 0)
(-4.005e-05 -3.9439e-05 0)
(-4.61015e-05 -5.1076e-05 0)
(-5.21182e-05 -6.43241e-05 0)
(-5.80951e-05 -7.9172e-05 0)
(-6.40333e-05 -9.56092e-05 0)
(-6.99319e-05 -0.000113625 0)
(-7.5791e-05 -0.000133208 0)
(-8.16105e-05 -0.000154349 0)
(-8.73905e-05 -0.000177036 0)
(-9.31308e-05 -0.000201259 0)
(-9.88316e-05 -0.000227008 0)
(-0.000104493 -0.000254272 0)
(-0.000110114 -0.00028304 0)
(-0.000115697 -0.000313302 0)
(-0.000121239 -0.000345047 0)
(-0.000126742 -0.000378265 0)
(-0.000132206 -0.000412945 0)
(-0.00013763 -0.000449077 0)
(-0.000143014 -0.00048665 0)
(-0.000148361 -0.000525653 0)
(-0.000153663 -0.000566079 0)
(-0.000158929 -0.000607906 0)
(-0.000164154 -0.00065112 0)
(-0.000169317 -0.000695748 0)
(-0.000174465 -0.000741752 0)
(-0.000179562 -0.00078911 0)
(-0.000184629 -0.000837827 0)
(-0.000189652 -0.000887887 0)
(-0.000194638 -0.000939283 0)
(-0.000199582 -0.000992002 0)
(-0.000204488 -0.00104603 0)
(-0.000209354 -0.00110137 0)
(-0.00021418 -0.00115799 0)
(-0.000218968 -0.0012159 0)
(-0.000223716 -0.00127508 0)
(-0.000228425 -0.00133552 0)
(-0.000233095 -0.00139721 0)
(-0.000237725 -0.00146014 0)
(-0.000242315 -0.0015243 0)
(-0.000246865 -0.00158968 0)
(-0.000251376 -0.00165626 0)
(-0.000255848 -0.00172404 0)
(-0.000260281 -0.00179301 0)
(-0.000264675 -0.00186316 0)
(-0.000269029 -0.00193447 0)
(-0.000273343 -0.00200694 0)
(-0.000277618 -0.00208055 0)
(-0.000281854 -0.0021553 0)
(-0.000286049 -0.00223117 0)
(-0.000290205 -0.00230816 0)
(-0.000294322 -0.00238625 0)
(-0.000298398 -0.00246543 0)
(-0.000302435 -0.0025457 0)
(-0.000306431 -0.00262703 0)
(-0.000310388 -0.00270942 0)
(-0.000314306 -0.00279286 0)
(-0.000318185 -0.00287735 0)
(-0.000322024 -0.00296286 0)
(-0.000325823 -0.00304939 0)
(-0.000329583 -0.00313693 0)
(-0.000333303 -0.00322546 0)
(-0.000336983 -0.00331498 0)
(-0.000340624 -0.00340548 0)
(-0.000344226 -0.00349695 0)
(-0.000347787 -0.00358937 0)
(-0.00035131 -0.00368273 0)
(-0.000354792 -0.00377703 0)
(-0.000358235 -0.00387225 0)
(-0.000361639 -0.00396838 0)
(-0.000365003 -0.00406542 0)
(-0.000368327 -0.00416335 0)
(-0.000371612 -0.00426215 0)
(-0.000374857 -0.00436183 0)
(-0.000378063 -0.00446237 0)
(-0.000381229 -0.00456376 0)
(-0.000384356 -0.00466599 0)
(-0.000387443 -0.00476905 0)
(-0.000390491 -0.00487293 0)
(-0.000393498 -0.00497761 0)
(-0.000396467 -0.00508309 0)
(-0.000399396 -0.00518935 0)
(-0.000402285 -0.00529639 0)
(-0.000405134 -0.0054042 0)
(-0.000407945 -0.00551276 0)
(-0.000410715 -0.00562207 0)
(-0.000413445 -0.00573211 0)
(-0.000416136 -0.00584287 0)
(-0.000418785 -0.00595434 0)
(-0.000421398 -0.00606651 0)
(-0.000423968 -0.00617938 0)
(-0.0004265 -0.00629293 0)
(-0.00042899 -0.00640715 0)
(-0.000431444 -0.00652202 0)
(-0.000433856 -0.00663755 0)
(-0.000436234 -0.00675371 0)
(-0.000438567 -0.00687051 0)
(-0.000440872 -0.00698792 0)
(-0.000443128 -0.00710593 0)
(-0.000445342 -0.00722454 0)
(-0.00044752 -0.00734374 0)
(-0.000449654 -0.00746352 0)
(-0.000451755 -0.00758385 0)
(-0.000453806 -0.00770475 0)
(-0.000455846 -0.00782619 0)
(-0.000457821 -0.00794816 0)
(-0.000459755 -0.00807065 0)
(-0.000461654 -0.00819365 0)
(-0.000463511 -0.00831716 0)
(-0.00046533 -0.00844115 0)
(-0.000467109 -0.00856563 0)
(-0.000468849 -0.00869057 0)
(-0.000470549 -0.00881598 0)
(-0.00047221 -0.00894183 0)
(-0.000473831 -0.00906812 0)
(-0.000475413 -0.00919483 0)
(-0.000476955 -0.00932196 0)
(-0.000478456 -0.0094495 0)
(-0.000479922 -0.00957744 0)
(-0.00048134 -0.00970576 0)
(-0.000482739 -0.00983445 0)
(-0.000484081 -0.00996351 0)
(-0.000485383 -0.0100929 0)
(-0.000486647 -0.0102227 0)
(-0.000487871 -0.0103528 0)
(-0.000489057 -0.0104832 0)
(-0.000490203 -0.0106139 0)
(-0.00049131 -0.0107449 0)
(-0.000492378 -0.0108762 0)
(-0.000493406 -0.0110078 0)
(-0.000494395 -0.0111397 0)
(-0.000495343 -0.0112718 0)
(-0.000496253 -0.0114041 0)
(-0.000497123 -0.0115367 0)
(-0.000497953 -0.0116696 0)
(-0.000498744 -0.0118026 0)
(-0.000499495 -0.0119359 0)
(-0.000500207 -0.0120693 0)
(-0.000500879 -0.0122029 0)
(-0.000501511 -0.0123367 0)
(-0.000502104 -0.0124707 0)
(-0.000502657 -0.0126048 0)
(-0.000503171 -0.0127391 0)
(-0.000503645 -0.0128735 0)
(-0.000504079 -0.013008 0)
(-0.000504474 -0.0131426 0)
(-0.00050483 -0.0132773 0)
(-0.000505146 -0.0134121 0)
(-0.000505422 -0.013547 0)
(-0.00050566 -0.013682 0)
(-0.000505859 -0.013817 0)
(-0.00050602 -0.0139521 0)
(-0.000506146 -0.0140872 0)
(-0.000506238 -0.0142223 0)
(-0.000506309 -0.0143575 0)
(-2.58041e-06 -1.68848e-06 0)
(-7.91619e-06 -4.10364e-06 0)
(-1.33709e-05 -7.81832e-06 0)
(-1.87126e-05 -1.29956e-05 0)
(-2.407e-05 -1.97611e-05 0)
(-2.93752e-05 -2.81564e-05 0)
(-3.46593e-05 -3.81794e-05 0)
(-3.99058e-05 -4.98243e-05 0)
(-4.51209e-05 -6.30802e-05 0)
(-5.03011e-05 -7.79363e-05 0)
(-5.54476e-05 -9.43816e-05 0)
(-6.05597e-05 -0.000112405 0)
(-6.56376e-05 -0.000131997 0)
(-7.06811e-05 -0.000153146 0)
(-7.56904e-05 -0.000175841 0)
(-8.06654e-05 -0.000200073 0)
(-8.56061e-05 -0.00022583 0)
(-9.05125e-05 -0.000253102 0)
(-9.53846e-05 -0.000281878 0)
(-0.000100222 -0.000312148 0)
(-0.000105026 -0.000343902 0)
(-0.000109795 -0.000377128 0)
(-0.00011453 -0.000411816 0)
(-0.000119231 -0.000447956 0)
(-0.000123897 -0.000485537 0)
(-0.000128532 -0.000524548 0)
(-0.000133129 -0.000564984 0)
(-0.000137699 -0.000606817 0)
(-0.000142233 -0.000650039 0)
(-0.000146684 -0.000694681 0)
(-0.000151152 -0.000740691 0)
(-0.00015557 -0.000788056 0)
(-0.000159962 -0.00083678 0)
(-0.000164316 -0.000886849 0)
(-0.000168637 -0.000938253 0)
(-0.000172922 -0.00099098 0)
(-0.000177174 -0.00104502 0)
(-0.000181391 -0.00110036 0)
(-0.000185575 -0.00115699 0)
(-0.000189724 -0.00121491 0)
(-0.000193839 -0.0012741 0)
(-0.00019792 -0.00133455 0)
(-0.000201967 -0.00139624 0)
(-0.00020598 -0.00145918 0)
(-0.000209958 -0.00152335 0)
(-0.000213902 -0.00158874 0)
(-0.000217812 -0.00165533 0)
(-0.000221688 -0.00172312 0)
(-0.00022553 -0.0017921 0)
(-0.000229338 -0.00186225 0)
(-0.000233111 -0.00193357 0)
(-0.00023685 -0.00200605 0)
(-0.000240555 -0.00207967 0)
(-0.000244226 -0.00215443 0)
(-0.000247862 -0.00223031 0)
(-0.000251464 -0.0023073 0)
(-0.000255032 -0.0023854 0)
(-0.000258565 -0.00246459 0)
(-0.000262063 -0.00254486 0)
(-0.000265527 -0.0026262 0)
(-0.000268957 -0.00270861 0)
(-0.000272353 -0.00279206 0)
(-0.000275714 -0.00287655 0)
(-0.000279041 -0.00296207 0)
(-0.000282334 -0.0030486 0)
(-0.000285592 -0.00313615 0)
(-0.000288816 -0.00322469 0)
(-0.000292006 -0.00331423 0)
(-0.000295161 -0.00340473 0)
(-0.000298283 -0.0034962 0)
(-0.000301369 -0.00358863 0)
(-0.000304422 -0.003682 0)
(-0.00030744 -0.00377631 0)
(-0.000310424 -0.00387154 0)
(-0.000313374 -0.00396768 0)
(-0.000316289 -0.00406472 0)
(-0.000319171 -0.00416266 0)
(-0.000322017 -0.00426148 0)
(-0.00032483 -0.00436117 0)
(-0.000327608 -0.00446171 0)
(-0.000330352 -0.00456311 0)
(-0.000333062 -0.00466535 0)
(-0.000335738 -0.00476841 0)
(-0.000338379 -0.0048723 0)
(-0.000340986 -0.00497699 0)
(-0.000343558 -0.00508248 0)
(-0.000346096 -0.00518875 0)
(-0.0003486 -0.0052958 0)
(-0.00035107 -0.00540361 0)
(-0.000353506 -0.00551218 0)
(-0.000355906 -0.0056215 0)
(-0.000358273 -0.00573154 0)
(-0.000360605 -0.00584231 0)
(-0.000362903 -0.00595379 0)
(-0.000365166 -0.00606597 0)
(-0.000367391 -0.00617885 0)
(-0.000369586 -0.00629241 0)
(-0.000371744 -0.00640663 0)
(-0.000373871 -0.00652152 0)
(-0.000375961 -0.00663705 0)
(-0.000378022 -0.00675322 0)
(-0.000380041 -0.00687003 0)
(-0.000382049 -0.00698745 0)
(-0.000384001 -0.00710547 0)
(-0.000385918 -0.00722409 0)
(-0.000387804 -0.0073433 0)
(-0.000389652 -0.00746308 0)
(-0.000391472 -0.00758342 0)
(-0.00039324 -0.00770433 0)
(-0.00039501 -0.00782577 0)
(-0.000396742 -0.00794775 0)
(-0.000398408 -0.00807025 0)
(-0.000400054 -0.00819326 0)
(-0.000401663 -0.00831678 0)
(-0.00040324 -0.00844078 0)
(-0.000404782 -0.00856526 0)
(-0.00040629 -0.00869022 0)
(-0.000407763 -0.00881563 0)
(-0.000409202 -0.00894149 0)
(-0.000410608 -0.00906778 0)
(-0.000411978 -0.00919451 0)
(-0.000413315 -0.00932165 0)
(-0.000414615 -0.0094492 0)
(-0.000415885 -0.00957714 0)
(-0.000417107 -0.00970546 0)
(-0.000418322 -0.00983417 0)
(-0.000419497 -0.00996323 0)
(-0.000420618 -0.0100927 0)
(-0.000421715 -0.0102224 0)
(-0.000422775 -0.0103525 0)
(-0.000423803 -0.0104829 0)
(-0.000424797 -0.0106137 0)
(-0.000425756 -0.0107447 0)
(-0.000426681 -0.010876 0)
(-0.000427572 -0.0110076 0)
(-0.000428429 -0.0111395 0)
(-0.000429251 -0.0112716 0)
(-0.00043004 -0.011404 0)
(-0.000430794 -0.0115366 0)
(-0.000431513 -0.0116694 0)
(-0.000432199 -0.0118024 0)
(-0.00043285 -0.0119357 0)
(-0.000433466 -0.0120692 0)
(-0.000434049 -0.0122028 0)
(-0.000434597 -0.0123366 0)
(-0.00043511 -0.0124706 0)
(-0.00043559 -0.0126047 0)
(-0.000436035 -0.012739 0)
(-0.000436446 -0.0128734 0)
(-0.000436823 -0.0130079 0)
(-0.000437165 -0.0131425 0)
(-0.000437473 -0.0132773 0)
(-0.000437747 -0.0134121 0)
(-0.000437986 -0.013547 0)
(-0.000438192 -0.0136819 0)
(-0.000438363 -0.013817 0)
(-0.000438501 -0.013952 0)
(-0.000438605 -0.0140872 0)
(-0.000438674 -0.0142223 0)
(-0.000438711 -0.0143575 0)
(-2.02796e-06 -9.79387e-07 0)
(-6.54248e-06 -3.10915e-06 0)
(-1.11875e-05 -6.77905e-06 0)
(-1.57525e-05 -1.19514e-05 0)
(-2.03086e-05 -1.87248e-05 0)
(-2.48104e-05 -2.71291e-05 0)
(-2.92874e-05 -3.71598e-05 0)
(-3.37292e-05 -4.88122e-05 0)
(-3.81431e-05 -6.20749e-05 0)
(-4.25267e-05 -7.69378e-05 0)
(-4.68816e-05 -9.33897e-05 0)
(-5.12072e-05 -0.00011142 0)
(-5.55039e-05 -0.000131018 0)
(-5.97715e-05 -0.000152174 0)
(-6.40101e-05 -0.000174876 0)
(-6.82197e-05 -0.000199114 0)
(-7.24003e-05 -0.000224878 0)
(-7.65518e-05 -0.000252156 0)
(-8.06744e-05 -0.000280939 0)
(-8.47679e-05 -0.000311216 0)
(-8.88324e-05 -0.000342976 0)
(-9.2868e-05 -0.000376209 0)
(-9.68744e-05 -0.000410904 0)
(-0.000100853 -0.00044705 0)
(-0.0001048 -0.000484638 0)
(-0.000108724 -0.000523655 0)
(-0.000112611 -0.000564094 0)
(-0.000116507 -0.000605937 0)
(-0.000120293 -0.000649181 0)
(-0.000124046 -0.000693819 0)
(-0.000127856 -0.000739829 0)
(-0.000131595 -0.000787204 0)
(-0.000135315 -0.000835934 0)
(-0.000138999 -0.00088601 0)
(-0.000142656 -0.000937421 0)
(-0.000146282 -0.000990155 0)
(-0.00014988 -0.0010442 0)
(-0.000153449 -0.00109955 0)
(-0.000156988 -0.00115619 0)
(-0.000160499 -0.00121411 0)
(-0.000163981 -0.0012733 0)
(-0.000167435 -0.00133376 0)
(-0.000170859 -0.00139546 0)
(-0.000174255 -0.00145841 0)
(-0.000177621 -0.00152259 0)
(-0.000180958 -0.00158798 0)
(-0.000184267 -0.00165458 0)
(-0.000187547 -0.00172237 0)
(-0.000190798 -0.00179136 0)
(-0.00019402 -0.00186152 0)
(-0.000197213 -0.00193285 0)
(-0.000200377 -0.00200533 0)
(-0.000203512 -0.00207896 0)
(-0.000206618 -0.00215372 0)
(-0.000209695 -0.00222961 0)
(-0.000212743 -0.00230661 0)
(-0.000215761 -0.00238471 0)
(-0.000218751 -0.00246391 0)
(-0.000221712 -0.00254419 0)
(-0.000224643 -0.00262554 0)
(-0.000227545 -0.00270795 0)
(-0.000230418 -0.0027914 0)
(-0.000233263 -0.0028759 0)
(-0.000236078 -0.00296143 0)
(-0.000238864 -0.00304797 0)
(-0.000241621 -0.00313552 0)
(-0.000244349 -0.00322407 0)
(-0.000247048 -0.00331361 0)
(-0.000249718 -0.00340412 0)
(-0.000252359 -0.0034956 0)
(-0.000254971 -0.00358804 0)
(-0.000257554 -0.00368142 0)
(-0.000260108 -0.00377573 0)
(-0.000262633 -0.00387096 0)
(-0.000265129 -0.00396711 0)
(-0.000267596 -0.00406416 0)
(-0.000270034 -0.00416211 0)
(-0.000272443 -0.00426093 0)
(-0.000274822 -0.00436062 0)
(-0.000277173 -0.00446118 0)
(-0.000279495 -0.00456258 0)
(-0.000281788 -0.00466483 0)
(-0.000284052 -0.0047679 0)
(-0.000286287 -0.00487179 0)
(-0.000288492 -0.00497649 0)
(-0.000290669 -0.00508198 0)
(-0.000292817 -0.00518826 0)
(-0.000294936 -0.00529532 0)
(-0.000297025 -0.00540314 0)
(-0.000299086 -0.00551172 0)
(-0.000301118 -0.00562104 0)
(-0.000303121 -0.00573109 0)
(-0.000305095 -0.00584187 0)
(-0.00030704 -0.00595335 0)
(-0.000308954 -0.00606554 0)
(-0.000310832 -0.00617842 0)
(-0.000312691 -0.00629199 0)
(-0.000314517 -0.00640622 0)
(-0.000316317 -0.00652111 0)
(-0.000318084 -0.00663665 0)
(-0.000319828 -0.00675283 0)
(-0.000321523 -0.00686964 0)
(-0.000323228 -0.00698706 0)
(-0.000324903 -0.0071051 0)
(-0.000326511 -0.00722372 0)
(-0.000328109 -0.00734294 0)
(-0.000329672 -0.00746272 0)
(-0.000331211 -0.00758308 0)
(-0.000332716 -0.00770398 0)
(-0.000334194 -0.00782543 0)
(-0.000335661 -0.00794742 0)
(-0.000337079 -0.00806993 0)
(-0.000338473 -0.00819295 0)
(-0.000339835 -0.00831647 0)
(-0.000341169 -0.00844048 0)
(-0.000342474 -0.00856497 0)
(-0.00034375 -0.00868993 0)
(-0.000344997 -0.00881535 0)
(-0.000346215 -0.00894121 0)
(-0.000347404 -0.00906752 0)
(-0.000348563 -0.00919425 0)
(-0.000349695 -0.00932139 0)
(-0.000350796 -0.00944895 0)
(-0.000351869 -0.0095769 0)
(-0.00035291 -0.00970523 0)
(-0.000353924 -0.00983393 0)
(-0.000354917 -0.00996301 0)
(-0.000355871 -0.0100924 0)
(-0.000356801 -0.0102222 0)
(-0.000357699 -0.0103523 0)
(-0.000358569 -0.0104827 0)
(-0.00035941 -0.0106135 0)
(-0.000360222 -0.0107445 0)
(-0.000361004 -0.0108758 0)
(-0.000361758 -0.0110074 0)
(-0.000362483 -0.0111393 0)
(-0.000363179 -0.0112714 0)
(-0.000363846 -0.0114038 0)
(-0.000364484 -0.0115364 0)
(-0.000365093 -0.0116693 0)
(-0.000365673 -0.0118023 0)
(-0.000366224 -0.0119356 0)
(-0.000366746 -0.012069 0)
(-0.000367238 -0.0122027 0)
(-0.000367702 -0.0123365 0)
(-0.000368137 -0.0124705 0)
(-0.000368543 -0.0126046 0)
(-0.000368919 -0.0127389 0)
(-0.000369267 -0.0128733 0)
(-0.000369586 -0.0130078 0)
(-0.000369875 -0.0131425 0)
(-0.000370136 -0.0132772 0)
(-0.000370368 -0.013412 0)
(-0.00037057 -0.0135469 0)
(-0.000370744 -0.0136819 0)
(-0.000370888 -0.0138169 0)
(-0.000371002 -0.013952 0)
(-0.000371085 -0.0140871 0)
(-0.000371137 -0.0142223 0)
(-0.000371161 -0.0143575 0)
(-1.60117e-06 -4.45844e-07 0)
(-5.25121e-06 -2.29076e-06 0)
(-9.06163e-06 -5.8851e-06 0)
(-1.28251e-05 -1.1046e-05 0)
(-1.65701e-05 -1.78253e-05 0)
(-2.02649e-05 -2.62385e-05 0)
(-2.39335e-05 -3.62769e-05 0)
(-2.75705e-05 -4.79365e-05 0)
(-3.11831e-05 -6.12055e-05 0)
(-3.47702e-05 -7.60745e-05 0)
(-3.83335e-05 -9.25323e-05 0)
(-4.18727e-05 -0.000110569 0)
(-4.53882e-05 -0.000130173 0)
(-4.88799e-05 -0.000151334 0)
(-5.23478e-05 -0.000174042 0)
(-5.5792e-05 -0.000198285 0)
(-5.92125e-05 -0.000224055 0)
(-6.26092e-05 -0.000251339 0)
(-6.59821e-05 -0.000280128 0)
(-6.93314e-05 -0.00031041 0)
(-7.26568e-05 -0.000342176 0)
(-7.59587e-05 -0.000375415 0)
(-7.92365e-05 -0.000410115 0)
(-8.24911e-05 -0.000446268 0)
(-8.57207e-05 -0.00048386 0)
(-8.89294e-05 -0.000522884 0)
(-9.2107e-05 -0.000563325 0)
(-9.52746e-05 -0.000605181 0)
(-9.83701e-05 -0.000648442 0)
(-0.000101486 -0.000693071 0)
(-0.000104581 -0.000739082 0)
(-0.000107644 -0.000786467 0)
(-0.000110686 -0.000835203 0)
(-0.000113701 -0.000885285 0)
(-0.000116693 -0.000936702 0)
(-0.00011966 -0.000989442 0)
(-0.000122604 -0.00104349 0)
(-0.000125524 -0.00109885 0)
(-0.00012842 -0.00115549 0)
(-0.000131293 -0.00121342 0)
(-0.000134142 -0.00127262 0)
(-0.000136967 -0.00133308 0)
(-0.000139769 -0.00139479 0)
(-0.000142548 -0.00145774 0)
(-0.000145302 -0.00152193 0)
(-0.000148033 -0.00158732 0)
(-0.00015074 -0.00165393 0)
(-0.000153425 -0.00172173 0)
(-0.000156085 -0.00179072 0)
(-0.000158721 -0.00186088 0)
(-0.000161333 -0.00193222 0)
(-0.000163922 -0.00200471 0)
(-0.000166487 -0.00207834 0)
(-0.000169028 -0.00215311 0)
(-0.000171545 -0.002229 0)
(-0.000174039 -0.00230601 0)
(-0.000176509 -0.00238412 0)
(-0.000178956 -0.00246332 0)
(-0.000181378 -0.00254361 0)
(-0.000183776 -0.00262496 0)
(-0.000186151 -0.00270737 0)
(-0.000188502 -0.00279084 0)
(-0.00019083 -0.00287534 0)
(-0.000193133 -0.00296087 0)
(-0.000195413 -0.00304742 0)
(-0.000197668 -0.00313498 0)
(-0.0001999 -0.00322354 0)
(-0.000202109 -0.00331308 0)
(-0.000204293 -0.0034036 0)
(-0.000206454 -0.00349508 0)
(-0.000208591 -0.00358752 0)
(-0.000210704 -0.00368091 0)
(-0.000212794 -0.00377523 0)
(-0.00021486 -0.00387047 0)
(-0.000216902 -0.00396662 0)
(-0.00021892 -0.00406368 0)
(-0.000220915 -0.00416163 0)
(-0.000222886 -0.00426046 0)
(-0.000224833 -0.00436016 0)
(-0.000226756 -0.00446072 0)
(-0.000228656 -0.00456213 0)
(-0.000230532 -0.00466438 0)
(-0.000232384 -0.00476746 0)
(-0.000234213 -0.00487135 0)
(-0.000236017 -0.00497605 0)
(-0.000237798 -0.00508155 0)
(-0.000239556 -0.00518784 0)
(-0.000241289 -0.0052949 0)
(-0.000242999 -0.00540273 0)
(-0.000244685 -0.00551131 0)
(-0.000246347 -0.00562064 0)
(-0.000247987 -0.0057307 0)
(-0.000249602 -0.00584148 0)
(-0.000251197 -0.00595297 0)
(-0.000252767 -0.00606516 0)
(-0.000254291 -0.00617805 0)
(-0.000255815 -0.00629163 0)
(-0.000257308 -0.00640586 0)
(-0.000258781 -0.00652076 0)
(-0.000260228 -0.0066363 0)
(-0.000261653 -0.00675249 0)
(-0.00026305 -0.0068693 0)
(-0.000264425 -0.00698673 0)
(-0.000265796 -0.00710477 0)
(-0.000267121 -0.0072234 0)
(-0.000268429 -0.00734262 0)
(-0.00026971 -0.00746242 0)
(-0.000270969 -0.00758278 0)
(-0.000272202 -0.00770369 0)
(-0.000273414 -0.00782514 0)
(-0.000274607 -0.00794714 0)
(-0.000275769 -0.00806965 0)
(-0.00027691 -0.00819268 0)
(-0.000278025 -0.0083162 0)
(-0.000279117 -0.00844022 0)
(-0.000280184 -0.00856471 0)
(-0.000281228 -0.00868968 0)
(-0.000282249 -0.0088151 0)
(-0.000283245 -0.00894097 0)
(-0.000284218 -0.00906728 0)
(-0.000285167 -0.00919402 0)
(-0.000286092 -0.00932117 0)
(-0.000286993 -0.00944873 0)
(-0.000287872 -0.00957669 0)
(-0.000288724 -0.00970503 0)
(-0.000289558 -0.00983374 0)
(-0.000290359 -0.00996281 0)
(-0.000291143 -0.0100923 0)
(-0.000291905 -0.010222 0)
(-0.00029264 -0.0103521 0)
(-0.000293353 -0.0104826 0)
(-0.000294041 -0.0106133 0)
(-0.000294705 -0.0107443 0)
(-0.000295345 -0.0108757 0)
(-0.000295962 -0.0110073 0)
(-0.000296555 -0.0111392 0)
(-0.000297125 -0.0112713 0)
(-0.000297671 -0.0114037 0)
(-0.000298193 -0.0115363 0)
(-0.000298691 -0.0116691 0)
(-0.000299165 -0.0118022 0)
(-0.000299616 -0.0119355 0)
(-0.000300043 -0.0120689 0)
(-0.000300446 -0.0122026 0)
(-0.000300826 -0.0123364 0)
(-0.000301181 -0.0124704 0)
(-0.000301513 -0.0126045 0)
(-0.000301822 -0.0127388 0)
(-0.000302106 -0.0128732 0)
(-0.000302367 -0.0130078 0)
(-0.000302604 -0.0131424 0)
(-0.000302817 -0.0132772 0)
(-0.000303006 -0.013412 0)
(-0.000303172 -0.0135469 0)
(-0.000303313 -0.0136819 0)
(-0.00030343 -0.0138169 0)
(-0.000303521 -0.013952 0)
(-0.000303587 -0.0140871 0)
(-0.000303625 -0.0142223 0)
(-0.000303644 -0.0143575 0)
(-1.22333e-06 -9.07389e-08 0)
(-4.02166e-06 -1.67775e-06 0)
(-6.99006e-06 -5.18967e-06 0)
(-9.93202e-06 -1.03334e-05 0)
(-1.28567e-05 -1.71176e-05 0)
(-1.57384e-05 -2.55391e-05 0)
(-1.8596e-05 -3.5585e-05 0)
(-2.14269e-05 -4.7251e-05 0)
(-2.42377e-05 -6.05255e-05 0)
(-2.70281e-05 -7.53994e-05 0)
(-2.97997e-05 -9.18619e-05 0)
(-3.25525e-05 -0.000109903 0)
(-3.52867e-05 -0.000129511 0)
(-3.80025e-05 -0.000150677 0)
(-4.06998e-05 -0.000173389 0)
(-4.33786e-05 -0.000197638 0)
(-4.60389e-05 -0.000223411 0)
(-4.86808e-05 -0.0002507 0)
(-5.13042e-05 -0.000279494 0)
(-5.39091e-05 -0.000309781 0)
(-5.64955e-05 -0.000341551 0)
(-5.90636e-05 -0.000374794 0)
(-6.16129e-05 -0.000409499 0)
(-6.41442e-05 -0.000445656 0)
(-6.66557e-05 -0.000483253 0)
(-6.9151e-05 -0.000522282 0)
(-7.1622e-05 -0.000562729 0)
(-7.40817e-05 -0.000604591 0)
(-7.6504e-05 -0.000647849 0)
(-7.89203e-05 -0.000692484 0)
(-8.13241e-05 -0.000738503 0)
(-8.37058e-05 -0.00078589 0)
(-8.60721e-05 -0.000834631 0)
(-8.84175e-05 -0.000884718 0)
(-9.0745e-05 -0.000936139 0)
(-9.30527e-05 -0.000988884 0)
(-9.53422e-05 -0.00104294 0)
(-9.76134e-05 -0.0010983 0)
(-9.98661e-05 -0.00115495 0)
(-0.0001021 -0.00121288 0)
(-0.000104316 -0.00127208 0)
(-0.000106514 -0.00133255 0)
(-0.000108693 -0.00139426 0)
(-0.000110855 -0.00145722 0)
(-0.000112997 -0.00152141 0)
(-0.000115121 -0.00158681 0)
(-0.000117228 -0.00165342 0)
(-0.000119316 -0.00172122 0)
(-0.000121385 -0.00179022 0)
(-0.000123436 -0.00186039 0)
(-0.000125468 -0.00193173 0)
(-0.000127481 -0.00200422 0)
(-0.000129476 -0.00207786 0)
(-0.000131452 -0.00215263 0)
(-0.00013341 -0.00222853 0)
(-0.00013535 -0.00230554 0)
(-0.000137271 -0.00238366 0)
(-0.000139175 -0.00246286 0)
(-0.000141059 -0.00254315 0)
(-0.000142924 -0.00262451 0)
(-0.000144771 -0.00270693 0)
(-0.000146601 -0.0027904 0)
(-0.000148411 -0.0028749 0)
(-0.000150202 -0.00296044 0)
(-0.000151975 -0.003047 0)
(-0.00015373 -0.00313456 0)
(-0.000155466 -0.00322312 0)
(-0.000157183 -0.00331267 0)
(-0.000158882 -0.00340319 0)
(-0.000160563 -0.00349468 0)
(-0.000162225 -0.00358712 0)
(-0.000163869 -0.00368051 0)
(-0.000165494 -0.00377483 0)
(-0.0001671 -0.00387008 0)
(-0.000168689 -0.00396624 0)
(-0.000170259 -0.0040633 0)
(-0.00017181 -0.00416125 0)
(-0.000173343 -0.00426009 0)
(-0.000174857 -0.00435979 0)
(-0.000176353 -0.00446036 0)
(-0.000177831 -0.00456177 0)
(-0.00017929 -0.00466403 0)
(-0.000180731 -0.00476711 0)
(-0.000182153 -0.00487101 0)
(-0.000183556 -0.00497572 0)
(-0.000184942 -0.00508122 0)
(-0.000186308 -0.00518751 0)
(-0.000187657 -0.00529458 0)
(-0.000188986 -0.00540241 0)
(-0.000190298 -0.005511 0)
(-0.000191591 -0.00562033 0)
(-0.000192868 -0.00573039 0)
(-0.000194122 -0.00584118 0)
(-0.000195377 -0.00595267 0)
(-0.000196573 -0.00606487 0)
(-0.000197751 -0.00617777 0)
(-0.000198951 -0.00629134 0)
(-0.000200112 -0.00640558 0)
(-0.00020126 -0.00652048 0)
(-0.000202385 -0.00663603 0)
(-0.000203494 -0.00675222 0)
(-0.000204583 -0.00686904 0)
(-0.000205655 -0.00698647 0)
(-0.000206715 -0.00710451 0)
(-0.000207748 -0.00722316 0)
(-0.000208765 -0.00734238 0)
(-0.000209761 -0.00746218 0)
(-0.000210741 -0.00758254 0)
(-0.000211701 -0.00770346 0)
(-0.000212643 -0.00782492 0)
(-0.000213569 -0.00794692 0)
(-0.000214474 -0.00806943 0)
(-0.000215362 -0.00819246 0)
(-0.000216229 -0.00831599 0)
(-0.000217079 -0.00844001 0)
(-0.000217909 -0.00856451 0)
(-0.000218721 -0.00868948 0)
(-0.000219515 -0.00881491 0)
(-0.00022029 -0.00894079 0)
(-0.000221046 -0.0090671 0)
(-0.000221784 -0.00919384 0)
(-0.000222504 -0.009321 0)
(-0.000223205 -0.00944856 0)
(-0.00022389 -0.00957652 0)
(-0.000224553 -0.00970487 0)
(-0.000225209 -0.00983358 0)
(-0.000225827 -0.00996267 0)
(-0.000226423 -0.0100921 0)
(-0.000227025 -0.0102219 0)
(-0.000227596 -0.010352 0)
(-0.000228151 -0.0104824 0)
(-0.000228686 -0.0106132 0)
(-0.000229203 -0.0107442 0)
(-0.000229701 -0.0108755 0)
(-0.00023018 -0.0110072 0)
(-0.000230641 -0.011139 0)
(-0.000231084 -0.0112712 0)
(-0.00023151 -0.0114036 0)
(-0.000231916 -0.0115362 0)
(-0.000232303 -0.011669 0)
(-0.000232672 -0.0118021 0)
(-0.000233023 -0.0119354 0)
(-0.000233355 -0.0120689 0)
(-0.000233668 -0.0122025 0)
(-0.000233963 -0.0123363 0)
(-0.00023424 -0.0124703 0)
(-0.000234498 -0.0126045 0)
(-0.000234738 -0.0127388 0)
(-0.000234959 -0.0128732 0)
(-0.000235162 -0.0130077 0)
(-0.000235346 -0.0131424 0)
(-0.000235512 -0.0132771 0)
(-0.000235659 -0.013412 0)
(-0.000235788 -0.0135469 0)
(-0.000235898 -0.0136819 0)
(-0.000235988 -0.0138169 0)
(-0.000236058 -0.013952 0)
(-0.000236107 -0.0140871 0)
(-0.000236134 -0.0142223 0)
(-0.000236149 -0.0143575 0)
(-8.64732e-07 1.55596e-07 0)
(-2.84037e-06 -1.22807e-06 0)
(-4.96151e-06 -4.66362e-06 0)
(-7.06991e-06 -9.79035e-06 0)
(-9.16533e-06 -1.6577e-05 0)
(-1.12284e-05 -2.5005e-05 0)
(-1.32722e-05 -3.50572e-05 0)
(-1.52956e-05 -4.67284e-05 0)
(-1.7304e-05 -6.00073e-05 0)
(-1.92974e-05 -7.48852e-05 0)
(-2.12772e-05 -9.13513e-05 0)
(-2.32435e-05 -0.000109396 0)
(-2.51966e-05 -0.000129008 0)
(-2.71364e-05 -0.000150177 0)
(-2.9063e-05 -0.000172892 0)
(-3.09764e-05 -0.000197144 0)
(-3.28766e-05 -0.000222922 0)
(-3.47637e-05 -0.000250214 0)
(-3.66375e-05 -0.00027901 0)
(-3.84981e-05 -0.000309301 0)
(-4.03455e-05 -0.000341075 0)
(-4.21798e-05 -0.000374321 0)
(-4.40006e-05 -0.00040903 0)
(-4.58084e-05 -0.00044519 0)
(-4.7602e-05 -0.000482791 0)
(-4.93836e-05 -0.000521823 0)
(-5.11478e-05 -0.000562274 0)
(-5.29028e-05 -0.000604138 0)
(-5.46357e-05 -0.000647403 0)
(-5.63631e-05 -0.00069204 0)
(-5.80777e-05 -0.000738061 0)
(-5.97796e-05 -0.000785451 0)
(-6.14696e-05 -0.000834196 0)
(-6.31453e-05 -0.000884286 0)
(-6.48081e-05 -0.000935711 0)
(-6.64564e-05 -0.00098846 0)
(-6.80917e-05 -0.00104252 0)
(-6.97142e-05 -0.00109788 0)
(-7.13233e-05 -0.00115453 0)
(-7.29192e-05 -0.00121247 0)
(-7.4502e-05 -0.00127168 0)
(-7.60715e-05 -0.00133214 0)
(-7.76283e-05 -0.00139386 0)
(-7.91732e-05 -0.00145682 0)
(-8.07035e-05 -0.00152101 0)
(-8.22217e-05 -0.00158642 0)
(-8.37267e-05 -0.00165303 0)
(-8.52192e-05 -0.00172084 0)
(-8.6697e-05 -0.00178984 0)
(-8.81619e-05 -0.00186001 0)
(-8.96131e-05 -0.00193135 0)
(-9.10513e-05 -0.00200385 0)
(-9.24761e-05 -0.00207749 0)
(-9.3888e-05 -0.00215227 0)
(-9.52865e-05 -0.00222817 0)
(-9.66723e-05 -0.00230519 0)
(-9.80446e-05 -0.0023833 0)
(-9.94047e-05 -0.00246251 0)
(-0.000100751 -0.00254281 0)
(-0.000102084 -0.00262417 0)
(-0.000103403 -0.00270659 0)
(-0.00010471 -0.00279006 0)
(-0.000106003 -0.00287457 0)
(-0.000107283 -0.00296011 0)
(-0.000108549 -0.00304667 0)
(-0.000109802 -0.00313424 0)
(-0.000111042 -0.0032228 0)
(-0.000112269 -0.00331235 0)
(-0.000113483 -0.00340288 0)
(-0.000114683 -0.00349437 0)
(-0.00011587 -0.00358682 0)
(-0.000117044 -0.00368021 0)
(-0.000118205 -0.00377454 0)
(-0.000119353 -0.00386978 0)
(-0.000120487 -0.00396595 0)
(-0.000121608 -0.00406301 0)
(-0.000122717 -0.00416097 0)
(-0.000123811 -0.00425981 0)
(-0.000124893 -0.00435951 0)
(-0.000125962 -0.00446008 0)
(-0.000127017 -0.0045615 0)
(-0.000128059 -0.00466376 0)
(-0.000129088 -0.00476684 0)
(-0.000130104 -0.00487075 0)
(-0.000131107 -0.00497546 0)
(-0.000132096 -0.00508097 0)
(-0.000133072 -0.00518726 0)
(-0.000134036 -0.00529433 0)
(-0.000134985 -0.00540217 0)
(-0.000135922 -0.00551076 0)
(-0.000136846 -0.00562009 0)
(-0.000137757 -0.00573016 0)
(-0.000138652 -0.00584094 0)
(-0.00013954 -0.00595245 0)
(-0.000140391 -0.00606466 0)
(-0.000141252 -0.00617755 0)
(-0.0001421 -0.00629112 0)
(-0.000142931 -0.00640537 0)
(-0.00014375 -0.00652027 0)
(-0.000144554 -0.00663583 0)
(-0.000145346 -0.00675202 0)
(-0.000146125 -0.00686884 0)
(-0.000146891 -0.00698627 0)
(-0.000147646 -0.00710432 0)
(-0.000148385 -0.00722297 0)
(-0.000149112 -0.00734219 0)
(-0.000149824 -0.007462 0)
(-0.000150524 -0.00758236 0)
(-0.00015121 -0.00770328 0)
(-0.000151883 -0.00782475 0)
(-0.000152544 -0.00794675 0)
(-0.000153191 -0.00806927 0)
(-0.000153825 -0.0081923 0)
(-0.000154445 -0.00831583 0)
(-0.000155052 -0.00843986 0)
(-0.000155645 -0.00856436 0)
(-0.000156225 -0.00868934 0)
(-0.000156792 -0.00881477 0)
(-0.000157345 -0.00894065 0)
(-0.000157886 -0.00906696 0)
(-0.000158413 -0.00919371 0)
(-0.000158928 -0.00932087 0)
(-0.000159429 -0.00944844 0)
(-0.000159917 -0.0095764 0)
(-0.000160392 -0.00970475 0)
(-0.000160856 -0.00983347 0)
(-0.000161307 -0.00996256 0)
(-0.000161732 -0.010092 0)
(-0.000162157 -0.0102218 0)
(-0.000162564 -0.0103519 0)
(-0.000162961 -0.0104823 0)
(-0.000163343 -0.0106131 0)
(-0.000163712 -0.0107441 0)
(-0.000164067 -0.0108755 0)
(-0.00016441 -0.0110071 0)
(-0.000164739 -0.011139 0)
(-0.000165055 -0.0112711 0)
(-0.000165361 -0.0114035 0)
(-0.00016565 -0.0115361 0)
(-0.000165927 -0.011669 0)
(-0.00016619 -0.0118021 0)
(-0.00016644 -0.0119353 0)
(-0.000166678 -0.0120688 0)
(-0.000166902 -0.0122025 0)
(-0.000167112 -0.0123363 0)
(-0.00016731 -0.0124703 0)
(-0.000167494 -0.0126044 0)
(-0.000167666 -0.0127387 0)
(-0.000167824 -0.0128731 0)
(-0.000167969 -0.0130077 0)
(-0.0001681 -0.0131423 0)
(-0.000168219 -0.0132771 0)
(-0.000168324 -0.0134119 0)
(-0.000168416 -0.0135468 0)
(-0.000168494 -0.0136818 0)
(-0.000168558 -0.0138169 0)
(-0.000168607 -0.013952 0)
(-0.000168641 -0.0140871 0)
(-0.00016866 -0.0142223 0)
(-0.000168671 -0.0143574 0)
(-5.16015e-07 3.04117e-07 0)
(-1.69158e-06 -9.39397e-07 0)
(-2.96437e-06 -4.31852e-06 0)
(-4.23178e-06 -9.4313e-06 0)
(-5.49166e-06 -1.62191e-05 0)
(-6.7314e-06 -2.46517e-05 0)
(-7.95877e-06 -3.47084e-05 0)
(-9.17344e-06 -4.63835e-05 0)
(-1.03787e-05 -5.96654e-05 0)
(-1.15749e-05 -7.45459e-05 0)
(-1.27628e-05 -9.10145e-05 0)
(-1.39426e-05 -0.000109061 0)
(-1.51144e-05 -0.000128675 0)
(-1.62783e-05 -0.000149847 0)
(-1.74342e-05 -0.000172565 0)
(-1.85822e-05 -0.000196819 0)
(-1.97223e-05 -0.000222598 0)
(-2.08545e-05 -0.000249893 0)
(-2.19788e-05 -0.000278692 0)
(-2.30951e-05 -0.000308984 0)
(-2.42035e-05 -0.00034076 0)
(-2.5304e-05 -0.000374009 0)
(-2.63963e-05 -0.00040872 0)
(-2.74808e-05 -0.000444883 0)
(-2.85565e-05 -0.000482486 0)
(-2.9625e-05 -0.000521521 0)
(-3.06828e-05 -0.000561974 0)
(-3.17344e-05 -0.000603841 0)
(-3.27756e-05 -0.000647104 0)
(-3.38123e-05 -0.000691746 0)
(-3.48398e-05 -0.00073777 0)
(-3.58609e-05 -0.000785161 0)
(-3.68751e-05 -0.000833908 0)
(-3.7881e-05 -0.000884001 0)
(-3.88793e-05 -0.000935429 0)
(-3.98682e-05 -0.00098818 0)
(-4.08492e-05 -0.00104224 0)
(-4.18231e-05 -0.0010976 0)
(-4.27886e-05 -0.00115426 0)
(-4.3746e-05 -0.0012122 0)
(-4.46957e-05 -0.00127141 0)
(-4.5637e-05 -0.00133188 0)
(-4.65713e-05 -0.0013936 0)
(-4.74989e-05 -0.00145656 0)
(-4.8417e-05 -0.00152075 0)
(-4.93302e-05 -0.00158616 0)
(-5.02337e-05 -0.00165277 0)
(-5.11305e-05 -0.00172059 0)
(-5.20169e-05 -0.00178959 0)
(-5.28962e-05 -0.00185976 0)
(-5.37667e-05 -0.00193111 0)