/*--------------------------------*- C++ -*----------------------------------*\
| =========                 |                                                 |
| \\      /  F ield         | foam-extend: Open Source CFD                    |
|  \\    /   O peration     | Version:     4.0                                |
|   \\  /    A nd           | Web:         http://www.foam-extend.org         |
|    \\/     M anipulation  |                                                 |
\*---------------------------------------------------------------------------*/
FoamFile
{
    version     2.0;
    format      ascii;
    class       volVectorField;
    location    "1";
    object      DD;
}
// * * * * * * * * * * * * * * * * * * * * * * * * * * * * * * * * * * * * * //

dimensions      [0 1 0 0 0 0 0];

internalField   nonuniform List<vector> 
2560
(
(-3.4952e-06 -2.79779e-06 0)
(-9.35983e-06 -5.3625e-06 0)
(-1.55986e-05 -9.09041e-06 0)
(-2.16766e-05 -1.42562e-05 0)
(-2.78251e-05 -2.10148e-05 0)
(-3.3926e-05 -2.93952e-05 0)
(-4.00116e-05 -3.94025e-05 0)
(-4.60571e-05 -5.10285e-05 0)
(-5.20679e-05 -6.42639e-05 0)
(-5.80389e-05 -7.90975e-05 0)
(-6.39711e-05 -9.55188e-05 0)
(-6.98639e-05 -0.000113517 0)
(-7.5717e-05 -0.000133081 0)
(-8.15313e-05 -0.000154201 0)
(-8.73048e-05 -0.000176866 0)
(-9.30416e-05 -0.000201065 0)
(-9.87337e-05 -0.000226791 0)
(-0.000104389 -0.000254021 0)
(-0.000110003 -0.000282742 0)
(-0.000115555 -0.000312982 0)
(-0.000121092 -0.000344702 0)
(-0.000126579 -0.000377879 0)
(-0.000132036 -0.000412518 0)
(-0.000137451 -0.000448605 0)
(-0.000142828 -0.000486132 0)
(-0.000148165 -0.000525088 0)
(-0.000153462 -0.000565462 0)
(-0.00015872 -0.000607243 0)
(-0.000163939 -0.000650421 0)
(-0.000169118 -0.000694985 0)
(-0.000174257 -0.000740925 0)
(-0.000179357 -0.000788231 0)
(-0.000184417 -0.000836891 0)
(-0.000189437 -0.000886895 0)
(-0.000194419 -0.000938232 0)
(-0.00019936 -0.000990893 0)
(-0.000204262 -0.00104487 0)
(-0.000209125 -0.00110014 0)
(-0.000213948 -0.00115671 0)
(-0.000218731 -0.00121456 0)
(-0.000223475 -0.00127367 0)
(-0.000228179 -0.00133405 0)
(-0.000232844 -0.00139568 0)
(-0.000237467 -0.00145854 0)
(-0.000242051 -0.00152263 0)
(-0.000246597 -0.00158794 0)
(-0.000251103 -0.00165445 0)
(-0.000255569 -0.00172216 0)
(-0.000259996 -0.00179106 0)
(-0.000264383 -0.00186113 0)
(-0.00026873 -0.00193237 0)
(-0.000273037 -0.00200476 0)
(-0.000277305 -0.0020783 0)
(-0.000281533 -0.00215296 0)
(-0.000285722 -0.00222875 0)
(-0.000289871 -0.00230565 0)
(-0.00029398 -0.00238365 0)
(-0.00029805 -0.00246275 0)
(-0.00030208 -0.00254292 0)
(-0.000306071 -0.00262416 0)
(-0.000310023 -0.00270646 0)
(-0.000313934 -0.00278981 0)
(-0.000317806 -0.0028742 0)
(-0.000321639 -0.00295961 0)
(-0.000325432 -0.00304604 0)
(-0.000329186 -0.00313348 0)
(-0.0003329 -0.00322191 0)
(-0.000336574 -0.00331133 0)
(-0.000340209 -0.00340172 0)
(-0.000343805 -0.00349308 0)
(-0.00034736 -0.00358539 0)
(-0.000350877 -0.00367865 0)
(-0.000354352 -0.00377283 0)
(-0.00035779 -0.00386794 0)
(-0.000361183 -0.00396396 0)
(-0.000364542 -0.00406087 0)
(-0.000367846 -0.00415867 0)
(-0.000371125 -0.00425737 0)
(-0.000374366 -0.00435693 0)
(-0.000377565 -0.00445734 0)
(-0.000380729 -0.00455861 0)
(-0.000383851 -0.00466071 0)
(-0.000386934 -0.00476364 0)
(-0.000389976 -0.00486739 0)
(-0.00039298 -0.00497194 0)
(-0.000395944 -0.00507729 0)
(-0.000398868 -0.00518342 0)
(-0.000401753 -0.00529033 0)
(-0.000404599 -0.005398 0)
(-0.000407405 -0.00550643 0)
(-0.000410172 -0.0056156 0)
(-0.000412899 -0.0057255 0)
(-0.000415587 -0.00583612 0)
(-0.000418235 -0.00594746 0)
(-0.000420844 -0.00605949 0)
(-0.000423414 -0.00617222 0)
(-0.000425943 -0.00628563 0)
(-0.000428434 -0.0063997 0)
(-0.000430885 -0.00651444 0)
(-0.000433297 -0.00662982 0)
(-0.000435669 -0.00674584 0)
(-0.000438002 -0.00686249 0)
(-0.000440295 -0.00697975 0)
(-0.000442549 -0.00709763 0)
(-0.000444763 -0.00721609 0)
(-0.000446938 -0.00733515 0)
(-0.000449073 -0.00745477 0)
(-0.000451169 -0.00757496 0)
(-0.000453225 -0.00769571 0)
(-0.000455242 -0.007817 0)
(-0.000457219 -0.00793882 0)
(-0.000459156 -0.00806116 0)
(-0.000461054 -0.00818401 0)
(-0.000462912 -0.00830737 0)
(-0.000464731 -0.00843121 0)
(-0.00046651 -0.00855554 0)
(-0.00046825 -0.00868033 0)
(-0.00046995 -0.00880558 0)
(-0.000471611 -0.00893128 0)
(-0.000473232 -0.00905742 0)
(-0.000474813 -0.00918399 0)
(-0.000476355 -0.00931097 0)
(-0.000477857 -0.00943836 0)
(-0.00047932 -0.00956614 0)
(-0.000480744 -0.00969431 0)
(-0.000482127 -0.00982285 0)
(-0.000483471 -0.00995175 0)
(-0.000484776 -0.010081 0)
(-0.000486041 -0.0102106 0)
(-0.000487266 -0.0103405 0)
(-0.000488452 -0.0104708 0)
(-0.000489599 -0.0106014 0)
(-0.000490706 -0.0107322 0)
(-0.000491773 -0.0108634 0)
(-0.000492801 -0.0109948 0)
(-0.000493789 -0.0111265 0)
(-0.000494737 -0.0112585 0)
(-0.000495646 -0.0113907 0)
(-0.000496516 -0.0115232 0)
(-0.000497346 -0.0116558 0)
(-0.000498136 -0.0117887 0)
(-0.000498887 -0.0119218 0)
(-0.000499598 -0.0120551 0)
(-0.00050027 -0.0121886 0)
(-0.000500903 -0.0123222 0)
(-0.000501495 -0.012456 0)
(-0.000502048 -0.01259 0)
(-0.000502562 -0.0127241 0)
(-0.000503036 -0.0128584 0)
(-0.000503471 -0.0129927 0)
(-0.000503866 -0.0131272 0)
(-0.000504221 -0.0132618 0)
(-0.000504537 -0.0133964 0)
(-0.000504814 -0.0135312 0)
(-0.000505052 -0.013666 0)
(-0.000505251 -0.0138008 0)
(-0.000505412 -0.0139357 0)
(-0.000505539 -0.0140707 0)
(-0.00050563 -0.0142057 0)
(-0.000505702 -0.0143407 0)
(-2.57799e-06 -1.68696e-06 0)
(-7.90872e-06 -4.10001e-06 0)
(-1.33582e-05 -7.81135e-06 0)
(-1.86948e-05 -1.29839e-05 0)
(-2.4047e-05 -1.97431e-05 0)
(-2.93471e-05 -2.81305e-05 0)
(-3.46261e-05 -3.81441e-05 0)
(-3.98674e-05 -4.9778e-05 0)
(-4.50773e-05 -6.30212e-05 0)
(-5.02524e-05 -7.7863e-05 0)
(-5.53937e-05 -9.42925e-05 0)
(-6.05008e-05 -0.000112299 0)
(-6.55734e-05 -0.000131871 0)
(-7.06125e-05 -0.000152999 0)
(-7.56162e-05 -0.000175673 0)
(-8.05887e-05 -0.000199879 0)
(-8.55232e-05 -0.000225615 0)
(-9.04315e-05 -0.000252851 0)
(-9.53042e-05 -0.000281579 0)
(-0.00010009 -0.000311834 0)
(-0.000104896 -0.00034356 0)
(-0.000109651 -0.000376744 0)
(-0.000114382 -0.00041139 0)
(-0.000119074 -0.000447486 0)
(-0.000123735 -0.000485021 0)
(-0.00012836 -0.000523985 0)
(-0.000132951 -0.000564367 0)
(-0.000137508 -0.000606156 0)
(-0.000142031 -0.000649343 0)
(-0.000146519 -0.000693915 0)
(-0.000150973 -0.000739863 0)
(-0.000155393 -0.000787177 0)
(-0.000159778 -0.000835845 0)
(-0.00016413 -0.000885857 0)
(-0.000168447 -0.000937203 0)
(-0.000172729 -0.000989872 0)
(-0.000176978 -0.00104385 0)
(-0.000181192 -0.00109914 0)
(-0.000185372 -0.00115571 0)
(-0.000189518 -0.00121357 0)
(-0.000193629 -0.00127269 0)
(-0.000197706 -0.00133308 0)
(-0.000201749 -0.00139472 0)
(-0.000205756 -0.00145759 0)
(-0.000209729 -0.00152169 0)
(-0.000213669 -0.001587 0)
(-0.000217574 -0.00165352 0)
(-0.000221445 -0.00172124 0)
(-0.000225281 -0.00179015 0)
(-0.000229083 -0.00186023 0)
(-0.000232851 -0.00193147 0)
(-0.000236584 -0.00200387 0)
(-0.000240282 -0.00207741 0)
(-0.000243947 -0.00215209 0)
(-0.000247577 -0.00222789 0)
(-0.000251173 -0.00230479 0)
(-0.000254734 -0.0023828 0)
(-0.000258261 -0.00246191 0)
(-0.000261754 -0.00254209 0)
(-0.000265213 -0.00262334 0)
(-0.000268638 -0.00270564 0)
(-0.000272028 -0.002789 0)
(-0.000275384 -0.0028734 0)
(-0.000278705 -0.00295882 0)
(-0.000281993 -0.00304526 0)
(-0.000285246 -0.00313271 0)
(-0.000288464 -0.00322115 0)
(-0.000291649 -0.00331057 0)
(-0.000294799 -0.00340097 0)
(-0.000297915 -0.00349234 0)
(-0.000300997 -0.00358466 0)
(-0.000304045 -0.00367792 0)
(-0.000307057 -0.00377211 0)
(-0.000310037 -0.00386723 0)
(-0.000312977 -0.00396326 0)
(-0.000315893 -0.00406018 0)
(-0.000318741 -0.00415799 0)
(-0.000321587 -0.00425669 0)
(-0.000324399 -0.00435626 0)
(-0.000327173 -0.00445668 0)
(-0.000329915 -0.00455795 0)
(-0.00033262 -0.00466007 0)
(-0.000335292 -0.00476301 0)
(-0.000337929 -0.00486676 0)
(-0.000340532 -0.00497132 0)
(-0.000343101 -0.00507668 0)
(-0.000345635 -0.00518282 0)
(-0.000348136 -0.00528974 0)
(-0.000350602 -0.00539742 0)
(-0.000353034 -0.00550585 0)
(-0.000355432 -0.00561503 0)
(-0.000357795 -0.00572494 0)
(-0.000360125 -0.00583557 0)
(-0.00036242 -0.00594691 0)
(-0.000364681 -0.00605896 0)
(-0.000366908 -0.00617169 0)
(-0.0003691 -0.00628511 0)
(-0.000371259 -0.00639919 0)
(-0.000373383 -0.00651393 0)
(-0.000375474 -0.00662932 0)
(-0.000377529 -0.00674535 0)
(-0.000379551 -0.00686201 0)
(-0.000381539 -0.00697928 0)
(-0.000383492 -0.00709716 0)
(-0.000385411 -0.00721564 0)
(-0.000387296 -0.0073347 0)
(-0.000389146 -0.00745433 0)
(-0.000390963 -0.00757453 0)
(-0.000392745 -0.00769529 0)
(-0.000394492 -0.00781658 0)
(-0.000396206 -0.00793841 0)
(-0.000397885 -0.00806076 0)
(-0.00039953 -0.00818362 0)
(-0.00040114 -0.00830699 0)
(-0.000402716 -0.00843084 0)
(-0.000404258 -0.00855517 0)
(-0.000405766 -0.00867997 0)
(-0.00040724 -0.00880524 0)
(-0.000408679 -0.00893094 0)
(-0.000410084 -0.00905709 0)
(-0.000411454 -0.00918366 0)
(-0.000412791 -0.00931065 0)
(-0.000414093 -0.00943805 0)
(-0.00041536 -0.00956584 0)
(-0.000416594 -0.00969402 0)
(-0.000417793 -0.00982257 0)
(-0.000418958 -0.00995148 0)
(-0.000420088 -0.0100807 0)
(-0.000421185 -0.0102104 0)
(-0.000422247 -0.0103403 0)
(-0.000423275 -0.0104706 0)
(-0.000424268 -0.0106011 0)
(-0.000425227 -0.010732 0)
(-0.000426152 -0.0108632 0)
(-0.000427043 -0.0109946 0)
(-0.0004279 -0.0111263 0)
(-0.000428722 -0.0112583 0)
(-0.00042951 -0.0113905 0)
(-0.000430263 -0.011523 0)
(-0.000430982 -0.0116557 0)
(-0.000431667 -0.0117886 0)
(-0.000432318 -0.0119217 0)
(-0.000432935 -0.012055 0)
(-0.000433517 -0.0121884 0)
(-0.000434065 -0.0123221 0)
(-0.000434579 -0.0124559 0)
(-0.000435058 -0.0125899 0)
(-0.000435503 -0.012724 0)
(-0.000435914 -0.0128583 0)
(-0.00043629 -0.0129926 0)
(-0.000436633 -0.0131271 0)
(-0.000436941 -0.0132617 0)
(-0.000437215 -0.0133964 0)
(-0.000437455 -0.0135311 0)
(-0.00043766 -0.0136659 0)
(-0.000437832 -0.0138008 0)
(-0.000437969 -0.0139357 0)
(-0.000438074 -0.0140707 0)
(-0.000438143 -0.0142057 0)
(-0.00043818 -0.0143407 0)
(-2.02604e-06 -9.78542e-07 0)
(-6.53629e-06 -3.10646e-06 0)
(-1.11768e-05 -6.77307e-06 0)
(-1.57375e-05 -1.19407e-05 0)
(-2.02892e-05 -1.87078e-05 0)
(-2.47866e-05 -2.71043e-05 0)
(-2.92592e-05 -3.71255e-05 0)
(-3.36967e-05 -4.87669e-05 0)
(-3.81062e-05 -6.20169e-05 0)
(-4.24855e-05 -7.68655e-05 0)
(-4.6836e-05 -9.33016e-05 0)
(-5.11574e-05 -0.000111315 0)
(-5.54496e-05 -0.000130894 0)
(-5.97136e-05 -0.000152028 0)
(-6.39472e-05 -0.000174708 0)
(-6.81571e-05 -0.000198921 0)
(-7.23291e-05 -0.00022466 0)
(-7.65142e-05 -0.000251906 0)
(-8.05817e-05 -0.000280658 0)
(-8.46176e-05 -0.000310907 0)
(-8.87154e-05 -0.000342632 0)
(-9.27407e-05 -0.000375826 0)
(-9.67466e-05 -0.000410479 0)
(-0.000100718 -0.000446582 0)
(-0.000104661 -0.000484124 0)
(-0.000108575 -0.000523094 0)
(-0.00011246 -0.000563483 0)
(-0.000116316 -0.000605279 0)
(-0.000120143 -0.000648471 0)
(-0.00012394 -0.000693051 0)
(-0.000127709 -0.000739006 0)
(-0.000131449 -0.000786326 0)
(-0.00013516 -0.000835001 0)
(-0.000138841 -0.000885019 0)
(-0.000142494 -0.000936372 0)
(-0.000146118 -0.000989047 0)
(-0.000149713 -0.00104304 0)
(-0.000153279 -0.00109833 0)
(-0.000156815 -0.00115491 0)
(-0.000160324 -0.00121277 0)
(-0.000163802 -0.0012719 0)
(-0.000167253 -0.00133229 0)
(-0.000170674 -0.00139394 0)
(-0.000174065 -0.00145682 0)
(-0.000177427 -0.00152092 0)
(-0.000180761 -0.00158624 0)
(-0.000184065 -0.00165277 0)
(-0.000187341 -0.0017205 0)
(-0.000190587 -0.00178941 0)
(-0.000193804 -0.0018595 0)
(-0.000196991 -0.00193075 0)
(-0.00020015 -0.00200315 0)
(-0.00020328 -0.0020767 0)
(-0.00020638 -0.00215138 0)
(-0.000209452 -0.00222719 0)
(-0.000212494 -0.0023041 0)
(-0.000215508 -0.00238212 0)
(-0.000218493 -0.00246123 0)
(-0.000221448 -0.00254141 0)
(-0.000224375 -0.00262267 0)
(-0.000227272 -0.00270499 0)
(-0.000230141 -0.00278835 0)
(-0.000232981 -0.00287275 0)
(-0.000235791 -0.00295818 0)
(-0.000238573 -0.00304463 0)
(-0.000241325 -0.00313208 0)
(-0.000244049 -0.00322053 0)
(-0.000246744 -0.00330996 0)
(-0.000249409 -0.00340037 0)
(-0.000252046 -0.00349174 0)
(-0.000254653 -0.00358407 0)
(-0.000257232 -0.00367733 0)
(-0.000259781 -0.00377153 0)
(-0.000262305 -0.00386666 0)
(-0.000264793 -0.00396269 0)
(-0.00026728 -0.00405962 0)
(-0.000269681 -0.00415744 0)
(-0.000272056 -0.00425615 0)
(-0.000274454 -0.00435572 0)
(-0.000276799 -0.00445615 0)
(-0.00027912 -0.00455743 0)
(-0.00028141 -0.00465955 0)
(-0.00028367 -0.00476249 0)
(-0.000285901 -0.00486625 0)
(-0.000288104 -0.00497082 0)
(-0.000290277 -0.00507619 0)
(-0.000292422 -0.00518233 0)
(-0.000294538 -0.00528926 0)
(-0.000296625 -0.00539694 0)
(-0.000298682 -0.00550538 0)
(-0.000300711 -0.00561457 0)
(-0.000302711 -0.00572448 0)
(-0.000304682 -0.00583512 0)
(-0.000306624 -0.00594647 0)
(-0.000308537 -0.00605852 0)
(-0.000310422 -0.00617126 0)
(-0.000312277 -0.00628468 0)
(-0.000314103 -0.00639877 0)
(-0.000315901 -0.00651352 0)
(-0.00031767 -0.00662892 0)
(-0.000319409 -0.00674496 0)
(-0.00032112 -0.00686162 0)
(-0.000322802 -0.0069789 0)
(-0.000324455 -0.00709679 0)
(-0.000326078 -0.00721527 0)
(-0.000327673 -0.00733434 0)
(-0.000329239 -0.00745398 0)
(-0.000330776 -0.00757419 0)
(-0.000332284 -0.00769495 0)
(-0.000333763 -0.00781625 0)
(-0.000335212 -0.00793808 0)
(-0.000336633 -0.00806044 0)
(-0.000338025 -0.00818331 0)
(-0.000339388 -0.00830668 0)
(-0.000340721 -0.00843054 0)
(-0.000342026 -0.00855488 0)
(-0.000343302 -0.00867969 0)
(-0.000344549 -0.00880495 0)
(-0.000345766 -0.00893067 0)
(-0.000346955 -0.00905682 0)
(-0.000348115 -0.0091834 0)
(-0.000349246 -0.0093104 0)
(-0.000350347 -0.0094378 0)
(-0.00035142 -0.0095656 0)
(-0.000352464 -0.00969378 0)
(-0.000353478 -0.00982234 0)
(-0.000354464 -0.00995126 0)
(-0.000355421 -0.0100805 0)
(-0.000356348 -0.0102101 0)
(-0.000357247 -0.0103401 0)
(-0.000358117 -0.0104704 0)
(-0.000358958 -0.0106009 0)
(-0.000359769 -0.0107318 0)
(-0.000360552 -0.010863 0)
(-0.000361305 -0.0109944 0)
(-0.00036203 -0.0111262 0)
(-0.000362726 -0.0112581 0)
(-0.000363392 -0.0113904 0)
(-0.00036403 -0.0115228 0)
(-0.000364639 -0.0116555 0)
(-0.000365218 -0.0117884 0)
(-0.000365769 -0.0119215 0)
(-0.000366291 -0.0120548 0)
(-0.000366783 -0.0121883 0)
(-0.000367247 -0.012322 0)
(-0.000367682 -0.0124558 0)
(-0.000368087 -0.0125898 0)
(-0.000368464 -0.0127239 0)
(-0.000368811 -0.0128582 0)
(-0.00036913 -0.0129926 0)
(-0.00036942 -0.013127 0)
(-0.00036968 -0.0132616 0)
(-0.000369912 -0.0133963 0)
(-0.000370115 -0.0135311 0)
(-0.000370289 -0.0136659 0)
(-0.000370433 -0.0138008 0)
(-0.000370547 -0.0139357 0)
(-0.000370631 -0.0140707 0)
(-0.000370682 -0.0142057 0)
(-0.000370707 -0.0143407 0)
(-1.59965e-06 -4.45507e-07 0)
(-5.24622e-06 -2.28886e-06 0)
(-9.05301e-06 -5.87998e-06 0)
(-1.28128e-05 -1.10362e-05 0)
(-1.65543e-05 -1.78092e-05 0)
(-2.02455e-05 -2.62145e-05 0)
(-2.39105e-05 -3.62435e-05 0)
(-2.7544e-05 -4.7892e-05 0)
(-3.1153e-05 -6.11485e-05 0)
(-3.47365e-05 -7.60031e-05 0)
(-3.82962e-05 -9.24451e-05 0)
(-4.18319e-05 -0.000110464 0)
(-4.53436e-05 -0.000130049 0)
(-4.88321e-05 -0.000151189 0)
(-5.22955e-05 -0.000173874 0)
(-5.57381e-05 -0.000198094 0)
(-5.91491e-05 -0.000223834 0)
(-6.25512e-05 -0.000251094 0)
(-6.58775e-05 -0.000279864 0)
(-6.92275e-05 -0.000310103 0)
(-7.2557e-05 -0.000341829 0)
(-7.58536e-05 -0.000375032 0)
(-7.91298e-05 -0.000409691 0)
(-8.23792e-05 -0.0004458 0)
(-8.56057e-05 -0.000483347 0)
(-8.88078e-05 -0.000522324 0)
(-9.19865e-05 -0.000562718 0)
(-9.51412e-05 -0.00060452 0)
(-9.82722e-05 -0.000647718 0)
(-0.00010138 -0.000692303 0)
(-0.000104463 -0.000738264 0)
(-0.000107523 -0.00078559 0)
(-0.000110559 -0.00083427 0)
(-0.000113571 -0.000884295 0)
(-0.00011656 -0.000935653 0)
(-0.000119525 -0.000988335 0)
(-0.000122466 -0.00104233 0)
(-0.000125383 -0.00109762 0)
(-0.000128277 -0.00115421 0)
(-0.000131148 -0.00121208 0)
(-0.000133994 -0.00127122 0)
(-0.000136817 -0.00133162 0)
(-0.000139617 -0.00139326 0)
(-0.000142392 -0.00145615 0)
(-0.000145143 -0.00152026 0)
(-0.000147871 -0.00158559 0)
(-0.000150575 -0.00165212 0)
(-0.000153254 -0.00171985 0)
(-0.00015591 -0.00178877 0)
(-0.000158542 -0.00185886 0)
(-0.00016115 -0.00193012 0)
(-0.000163734 -0.00200253 0)
(-0.000166295 -0.00207609 0)
(-0.000168832 -0.00215077 0)
(-0.000171345 -0.00222658 0)
(-0.000173834 -0.0023035 0)
(-0.0001763 -0.00238153 0)
(-0.000178742 -0.00246064 0)
(-0.00018116 -0.00254083 0)
(-0.000183554 -0.0026221 0)
(-0.000185925 -0.00270442 0)
(-0.000188272 -0.00278779 0)
(-0.000190596 -0.00287219 0)
(-0.000192895 -0.00295763 0)
(-0.000195171 -0.00304408 0)
(-0.000197423 -0.00313154 0)
(-0.000199651 -0.00321999 0)
(-0.000201856 -0.00330943 0)
(-0.000204037 -0.00339984 0)
(-0.000206194 -0.00349122 0)
(-0.000208328 -0.00358355 0)
(-0.000210438 -0.00367683 0)
(-0.000212523 -0.00377103 0)
(-0.000214587 -0.00386616 0)
(-0.000216626 -0.0039622 0)
(-0.000218646 -0.00405914 0)
(-0.000220639 -0.00415698 0)
(-0.000222581 -0.00425568 0)
(-0.00022453 -0.00435525 0)
(-0.000226446 -0.00445569 0)
(-0.000228344 -0.00455697 0)
(-0.000230217 -0.0046591 0)
(-0.000232066 -0.00476205 0)
(-0.000233891 -0.00486582 0)
(-0.000235694 -0.00497039 0)
(-0.000237472 -0.00507576 0)
(-0.000239227 -0.00518191 0)
(-0.000240958 -0.00528884 0)
(-0.000242665 -0.00539653 0)
(-0.000244349 -0.00550498 0)
(-0.000246009 -0.00561417 0)
(-0.000247645 -0.00572409 0)
(-0.000249258 -0.00583473 0)
(-0.000250847 -0.00594609 0)
(-0.000252412 -0.00605815 0)
(-0.000253954 -0.00617089 0)
(-0.000255471 -0.00628432 0)
(-0.000256966 -0.00639842 0)
(-0.000258437 -0.00651317 0)
(-0.000259884 -0.00662858 0)
(-0.000261307 -0.00674462 0)
(-0.000262707 -0.00686129 0)
(-0.000264083 -0.00697857 0)
(-0.000265435 -0.00709646 0)
(-0.000266764 -0.00721495 0)
(-0.000268069 -0.00733402 0)
(-0.00026935 -0.00745367 0)
(-0.000270607 -0.00757388 0)
(-0.000271841 -0.00769465 0)
(-0.000273051 -0.00781596 0)
(-0.000274237 -0.0079378 0)
(-0.000275399 -0.00806016 0)
(-0.000276538 -0.00818304 0)
(-0.000277653 -0.00830641 0)
(-0.000278744 -0.00843028 0)
(-0.000279812 -0.00855462 0)
(-0.000280856 -0.00867944 0)
(-0.000281876 -0.00880471 0)
(-0.000282872 -0.00893043 0)
(-0.000283845 -0.00905659 0)
(-0.000284794 -0.00918318 0)
(-0.000285719 -0.00931018 0)
(-0.00028662 -0.00943759 0)
(-0.000287498 -0.00956539 0)
(-0.000288352 -0.00969358 0)
(-0.000289182 -0.00982214 0)
(-0.000289988 -0.00995107 0)
(-0.000290771 -0.0100803 0)
(-0.00029153 -0.01021 0)
(-0.000292265 -0.0103399 0)
(-0.000292977 -0.0104702 0)
(-0.000293665 -0.0106008 0)
(-0.000294329 -0.0107317 0)
(-0.000294969 -0.0108628 0)
(-0.000295586 -0.0109943 0)
(-0.000296179 -0.011126 0)
(-0.000296748 -0.011258 0)
(-0.000297293 -0.0113902 0)
(-0.000297815 -0.0115227 0)
(-0.000298313 -0.0116554 0)
(-0.000298787 -0.0117883 0)
(-0.000299238 -0.0119214 0)
(-0.000299665 -0.0120547 0)
(-0.000300068 -0.0121882 0)
(-0.000300447 -0.0123219 0)
(-0.000300803 -0.0124557 0)
(-0.000301134 -0.0125897 0)
(-0.000301443 -0.0127239 0)
(-0.000301727 -0.0128581 0)
(-0.000301988 -0.0129925 0)
(-0.000302225 -0.013127 0)
(-0.000302438 -0.0132616 0)
(-0.000302627 -0.0133963 0)
(-0.000302793 -0.013531 0)
(-0.000302935 -0.0136658 0)
(-0.000303052 -0.0138007 0)
(-0.000303143 -0.0139357 0)
(-0.000303209 -0.0140706 0)
(-0.000303247 -0.0142056 0)
(-0.000303266 -0.0143407 0)
(-1.22217e-06 -9.07413e-08 0)
(-4.01783e-06 -1.67644e-06 0)
(-6.9834e-06 -5.18522e-06 0)
(-9.92254e-06 -1.03243e-05 0)
(-1.28443e-05 -1.71022e-05 0)
(-1.57233e-05 -2.55158e-05 0)
(-1.85781e-05 -3.55523e-05 0)
(-2.14063e-05 -4.72072e-05 0)
(-2.42142e-05 -6.04691e-05 0)
(-2.70019e-05 -7.53287e-05 0)
(-2.97706e-05 -9.17754e-05 0)
(-3.25207e-05 -0.000109799 0)
(-3.52519e-05 -0.000129388 0)
(-3.79651e-05 -0.000150533 0)
(-4.06584e-05 -0.000173223 0)
(-4.33356e-05 -0.000197447 0)
(-4.59882e-05 -0.000223194 0)
(-4.86298e-05 -0.00025046 0)
(-5.12328e-05 -0.000279226 0)
(-5.38305e-05 -0.000309472 0)
(-5.64162e-05 -0.000341205 0)
(-5.89795e-05 -0.000374411 0)
(-6.15277e-05 -0.000409075 0)
(-6.40549e-05 -0.000445189 0)
(-6.65646e-05 -0.000482741 0)
(-6.90551e-05 -0.000521722 0)
(-7.15273e-05 -0.00056212 0)
(-7.3981e-05 -0.000603927 0)
(-7.64163e-05 -0.00064713 0)
(-7.8833e-05 -0.000691719 0)
(-8.12313e-05 -0.000737684 0)
(-8.36112e-05 -0.000785015 0)
(-8.59725e-05 -0.0008337 0)
(-8.83155e-05 -0.000883729 0)
(-9.06399e-05 -0.000935091 0)
(-9.29459e-05 -0.000987777 0)
(-9.52334e-05 -0.00104178 0)
(-9.75025e-05 -0.00109708 0)
(-9.97531e-05 -0.00115367 0)
(-0.000101986 -0.00121154 0)
(-0.000104199 -0.00127068 0)
(-0.000106396 -0.00133108 0)
(-0.000108574 -0.00139274 0)
(-0.000110733 -0.00145563 0)
(-0.000112873 -0.00151974 0)
(-0.000114996 -0.00158507 0)
(-0.000117098 -0.00165161 0)
(-0.000119182 -0.00171935 0)
(-0.000121248 -0.00178827 0)
(-0.000123295 -0.00185837 0)
(-0.000125323 -0.00192963 0)
(-0.000127333 -0.00200205 0)
(-0.000129324 -0.00207561 0)
(-0.000131297 -0.0021503 0)
(-0.000133252 -0.00222611 0)
(-0.000135188 -0.00230304 0)
(-0.000137106 -0.00238106 0)
(-0.000139005 -0.00246018 0)
(-0.000140886 -0.00254038 0)
(-0.000142748 -0.00262165 0)
(-0.000144592 -0.00270397 0)
(-0.000146418 -0.00278735 0)
(-0.000148225 -0.00287176 0)
(-0.000150013 -0.0029572 0)
(-0.000151783 -0.00304365 0)
(-0.000153535 -0.00313112 0)
(-0.000155268 -0.00321957 0)
(-0.000156983 -0.00330902 0)
(-0.000158679 -0.00339944 0)
(-0.000160357 -0.00349082 0)
(-0.000162016 -0.00358315 0)
(-0.000163658 -0.00367643 0)
(-0.00016528 -0.00377064 0)
(-0.000166885 -0.00386577 0)
(-0.00016847 -0.00396182 0)
(-0.000170039 -0.00405876 0)
(-0.000171585 -0.0041566 0)
(-0.000173104 -0.00425531 0)
(-0.000174617 -0.00435489 0)
(-0.000176107 -0.00445533 0)
(-0.000177582 -0.00455662 0)
(-0.000179039 -0.00465875 0)
(-0.000180476 -0.0047617 0)
(-0.000181896 -0.00486547 0)
(-0.000183298 -0.00497005 0)
(-0.000184681 -0.00507543 0)
(-0.000186046 -0.00518158 0)
(-0.000187392 -0.00528852 0)
(-0.00018872 -0.00539621 0)
(-0.00019003 -0.00550466 0)
(-0.000191321 -0.00561386 0)
(-0.000192593 -0.00572378 0)
(-0.000193848 -0.00583443 0)
(-0.000195083 -0.00594579 0)
(-0.000196301 -0.00605785 0)
(-0.0001975 -0.0061706 0)
(-0.00019868 -0.00628404 0)
(-0.000199842 -0.00639814 0)
(-0.000200987 -0.0065129 0)
(-0.000202112 -0.00662831 0)
(-0.000203219 -0.00674435 0)
(-0.000204308 -0.00686102 0)
(-0.000205378 -0.00697831 0)
(-0.00020643 -0.00709621 0)
(-0.000207463 -0.0072147 0)
(-0.000208478 -0.00733378 0)
(-0.000209475 -0.00745343 0)
(-0.000210453 -0.00757365 0)
(-0.000211412 -0.00769442 0)
(-0.000212353 -0.00781573 0)
(-0.000213276 -0.00793758 0)
(-0.00021418 -0.00805995 0)
(-0.000215066 -0.00818282 0)
(-0.000215933 -0.0083062 0)
(-0.000216782 -0.00843007 0)
(-0.000217612 -0.00855442 0)
(-0.000218424 -0.00867924 0)
(-0.000219217 -0.00880452 0)
(-0.000219992 -0.00893025 0)
(-0.000220749 -0.00905641 0)
(-0.000221487 -0.009183 0)
(-0.000222206 -0.00931001 0)
(-0.000222907 -0.00943742 0)
(-0.00022359 -0.00956523 0)
(-0.000224254 -0.00969342 0)
(-0.0002249 -0.00982199 0)
(-0.000225527 -0.00995092 0)
(-0.000226136 -0.0100802 0)
(-0.000226726 -0.0102098 0)
(-0.000227298 -0.0103398 0)
(-0.000227851 -0.0104701 0)
(-0.000228386 -0.0106007 0)
(-0.000228903 -0.0107315 0)
(-0.000229401 -0.0108627 0)
(-0.00022988 -0.0109942 0)
(-0.000230342 -0.0111259 0)
(-0.000230784 -0.0112579 0)
(-0.000231208 -0.0113901 0)
(-0.000231614 -0.0115226 0)
(-0.000232002 -0.0116553 0)
(-0.00023237 -0.0117882 0)
(-0.000232721 -0.0119213 0)
(-0.000233053 -0.0120547 0)
(-0.000233366 -0.0121882 0)
(-0.000233661 -0.0123218 0)
(-0.000233938 -0.0124557 0)
(-0.000234196 -0.0125897 0)
(-0.000234436 -0.0127238 0)
(-0.000234657 -0.0128581 0)
(-0.00023486 -0.0129924 0)
(-0.000235044 -0.0131269 0)
(-0.00023521 -0.0132615 0)
(-0.000235356 -0.0133962 0)
(-0.000235485 -0.013531 0)
(-0.000235596 -0.0136658 0)
(-0.000235686 -0.0138007 0)
(-0.000235756 -0.0139357 0)
(-0.000235805 -0.0140706 0)
(-0.000235832 -0.0142056 0)
(-0.000235847 -0.0143407 0)
(-8.63909e-07 1.55357e-07 0)
(-2.83766e-06 -1.22719e-06 0)
(-4.95678e-06 -4.65967e-06 0)
(-7.06315e-06 -9.78172e-06 0)
(-9.15656e-06 -1.65621e-05 0)
(-1.12176e-05 -2.49823e-05 0)
(-1.32594e-05 -3.5025e-05 0)
(-1.52809e-05 -4.66852e-05 0)
(-1.72872e-05 -5.99514e-05 0)
(-1.92787e-05 -7.48151e-05 0)
(-2.12564e-05 -9.12653e-05 0)
(-2.32207e-05 -0.000109292 0)
(-2.51714e-05 -0.000128885 0)
(-2.71092e-05 -0.000150033 0)
(-2.90326e-05 -0.000172726 0)
(-3.09441e-05 -0.000196955 0)
(-3.2838e-05 -0.000222705 0)
(-3.47227e-05 -0.000249974 0)
(-3.65848e-05 -0.000278746 0)
(-3.84418e-05 -0.000308994 0)
(-4.02861e-05 -0.00034073 0)
(-4.21174e-05 -0.000373939 0)
(-4.39369e-05 -0.000408606 0)
(-4.57421e-05 -0.000444723 0)
(-4.75347e-05 -0.000482279 0)
(-4.93136e-05 -0.000521263 0)
(-5.10795e-05 -0.000561665 0)
(-5.28321e-05 -0.000603475 0)
(-5.45715e-05 -0.000646681 0)
(-5.62978e-05 -0.000691274 0)
(-5.80108e-05 -0.000737243 0)
(-5.97107e-05 -0.000784576 0)
(-6.13974e-05 -0.000833265 0)
(-6.30708e-05 -0.000883297 0)
(-6.47311e-05 -0.000934664 0)
(-6.63782e-05 -0.000987353 0)
(-6.80121e-05 -0.00104135 0)
(-6.96328e-05 -0.00109666 0)
(-7.12402e-05 -0.00115325 0)
(-7.28351e-05 -0.00121113 0)
(-7.4416e-05 -0.00127027 0)
(-7.59864e-05 -0.00133068 0)
(-7.75422e-05 -0.00139234 0)
(-7.90866e-05 -0.00145523 0)
(-8.06148e-05 -0.00151935 0)
(-8.21314e-05 -0.00158468 0)
(-8.36336e-05 -0.00165123 0)
(-8.51216e-05 -0.00171897 0)
(-8.65967e-05 -0.00178789 0)
(-8.80584e-05 -0.00185799 0)
(-8.95071e-05 -0.00192926 0)
(-9.09427e-05 -0.00200168 0)
(-9.23651e-05 -0.00207524 0)
(-9.37744e-05 -0.00214993 0)
(-9.51706e-05 -0.00222575 0)
(-9.65535e-05 -0.00230268 0)
(-9.79233e-05 -0.00238071 0)
(-9.92799e-05 -0.00245983 0)
(-0.000100623 -0.00254003 0)
(-0.000101954 -0.0026213 0)
(-0.000103271 -0.00270363 0)
(-0.000104575 -0.00278701 0)
(-0.000105865 -0.00287143 0)
(-0.000107143 -0.00295687 0)
(-0.000108407 -0.00304333 0)
(-0.000109658 -0.00313079 0)
(-0.000110896 -0.00321926 0)
(-0.000112121 -0.0033087 0)
(-0.000113333 -0.00339912 0)
(-0.000114531 -0.00349051 0)
(-0.000115716 -0.00358285 0)
(-0.000116888 -0.00367613 0)
(-0.000118047 -0.00377034 0)
(-0.000119194 -0.00386548 0)
(-0.000120326 -0.00396153 0)
(-0.000121445 -0.00405847 0)
(-0.00012255 -0.00415632 0)
(-0.000123637 -0.00425503 0)
(-0.000124716 -0.00435461 0)
(-0.000125779 -0.00445505 0)
(-0.000126831 -0.00455634 0)
(-0.000127871 -0.00465848 0)
(-0.000128898 -0.00476144 0)
(-0.000129911 -0.00486521 0)
(-0.000130913 -0.00496979 0)
(-0.000131901 -0.00507517 0)
(-0.000132876 -0.00518133 0)
(-0.000133838 -0.00528827 0)
(-0.000134787 -0.00539597 0)
(-0.000135722 -0.00550442 0)
(-0.000136644 -0.00561362 0)
(-0.000137553 -0.00572355 0)
(-0.000138449 -0.0058342 0)
(-0.000139331 -0.00594557 0)
(-0.000140201 -0.00605763 0)
(-0.000141057 -0.00617039 0)
(-0.0001419 -0.00628382 0)
(-0.00014273 -0.00639792 0)
(-0.000143548 -0.00651269 0)
(-0.000144352 -0.0066281 0)
(-0.000145143 -0.00674415 0)
(-0.00014592 -0.00686082 0)
(-0.000146685 -0.00697812 0)
(-0.000147436 -0.00709602 0)
(-0.000148174 -0.00721451 0)
(-0.000148899 -0.0073336 0)
(-0.000149611 -0.00745325 0)
(-0.00015031 -0.00757347 0)
(-0.000150995 -0.00769424 0)
(-0.000151667 -0.00781556 0)
(-0.000152326 -0.00793741 0)
(-0.000152972 -0.00805978 0)
(-0.000153604 -0.00818266 0)
(-0.000154224 -0.00830605 0)
(-0.00015483 -0.00842992 0)
(-0.000155423 -0.00855427 0)
(-0.000156003 -0.00867909 0)
(-0.00015657 -0.00880437 0)
(-0.000157123 -0.0089301 0)
(-0.000157664 -0.00905627 0)
(-0.000158191 -0.00918286 0)
(-0.000158705 -0.00930987 0)
(-0.000159205 -0.00943729 0)
(-0.000159693 -0.0095651 0)
(-0.000160167 -0.0096933 0)
(-0.000160629 -0.00982187 0)
(-0.000161077 -0.0099508 0)
(-0.000161511 -0.0100801 0)
(-0.000161933 -0.0102097 0)
(-0.000162342 -0.0103397 0)
(-0.000162737 -0.01047 0)
(-0.000163119 -0.0106006 0)
(-0.000163488 -0.0107315 0)
(-0.000163844 -0.0108626 0)
(-0.000164186 -0.0109941 0)
(-0.000164516 -0.0111258 0)
(-0.000164832 -0.0112578 0)
(-0.000165135 -0.0113901 0)
(-0.000165425 -0.0115225 0)
(-0.000165701 -0.0116552 0)
(-0.000165965 -0.0117882 0)
(-0.000166215 -0.0119213 0)
(-0.000166452 -0.0120546 0)
(-0.000166676 -0.0121881 0)
(-0.000166887 -0.0123218 0)
(-0.000167084 -0.0124556 0)
(-0.000167269 -0.0125896 0)
(-0.00016744 -0.0127238 0)
(-0.000167598 -0.012858 0)
(-0.000167743 -0.0129924 0)
(-0.000167874 -0.0131269 0)
(-0.000167993 -0.0132615 0)
(-0.000168096 -0.0133962 0)
(-0.00016819 -0.013531 0)
(-0.00016827 -0.0136658 0)
(-0.000168333 -0.0138007 0)
(-0.000168382 -0.0139356 0)
(-0.000168416 -0.0140706 0)
(-0.000168434 -0.0142056 0)
(-0.000168445 -0.0143406 0)
(-5.15524e-07 3.03735e-07 0)
(-1.68997e-06 -9.38789e-07 0)
(-2.96155e-06 -4.3149e-06 0)
(-4.22773e-06 -9.42302e-06 0)
(-5.4864e-06 -1.62046e-05 0)
(-6.72494e-06 -2.46293e-05 0)
(-7.95112e-06 -3.46766e-05 0)
(-9.1646e-06 -4.63406e-05 0)
(-1.03687e-05 -5.96099e-05 0)
(-1.15636e-05 -7.44762e-05 0)
(-1.27503e-05 -9.0929e-05 0)
(-1.39288e-05 -0.000108958 0)
(-1.5099e-05 -0.000128553 0)
(-1.62615e-05 -0.000149704 0)
(-1.74151e-05 -0.0001724 0)
(-1.85615e-05 -0.000196631 0)
(-1.9697e-05 -0.000222384 0)
(-2.08263e-05 -0.000249654 0)
(-2.19451e-05 -0.000278426 0)
(-2.30594e-05 -0.000308678 0)
(-2.41644e-05 -0.000340417 0)
(-2.52628e-05 -0.000373627 0)
(-2.63543e-05 -0.000408297 0)
(-2.74372e-05 -0.000444416 0)
(-2.85128e-05 -0.000481974 0)
(-2.95801e-05 -0.000520961 0)
(-3.06396e-05 -0.000561365 0)
(-3.16911e-05 -0.000603177 0)
(-3.27348e-05 -0.000646386 0)
(-3.37705e-05 -0.000690981 0)
(-3.47983e-05 -0.000736951 0)
(-3.58182e-05 -0.000784288 0)
(-3.68301e-05 -0.000832978 0)
(-3.78342e-05 -0.000883013 0)
(-3.88303e-05 -0.000934381 0)
(-3.98185e-05 -0.000987073 0)
(-4.07987e-05 -0.00104108 0)
(-4.17711e-05 -0.00109638 0)
(-4.27353e-05 -0.00115298 0)
(-4.36924e-05 -0.00121086 0)
(-4.46404e-05 -0.00127001 0)
(-4.55842e-05 -0.00133041 0)
(-4.65169e-05 -0.00139207 0)
(-4.7449e-05 -0.00145497 0)
(-4.83661e-05 -0.00151909 0)
(-4.92757e-05 -0.00158442 0)
(-5.01768e-05 -0.00165097 0)
(-5.10688e-05 -0.00171871 0)
(-5.19536e-05 -0.00178764 0)
(-5.28302e-05 -0.00185774 0)