/*--------------------------------*- C++ -*----------------------------------*\
| =========                 |                                                 |
| \\      /  F ield         | OpenFOAM: The Open Source CFD Toolbox           |
|  \\    /   O peration     | Version:  v1912                                 |
|   \\  /    A nd           | Website:  www.openfoam.com                      |
|    \\/     M anipulation  |                                                 |
\*---------------------------------------------------------------------------*/
FoamFile
{
    version     2.0;
    format      ascii;
    class       volSymmTensorField;
    location    "1";
    object      epsilon;
}
// * * * * * * * * * * * * * * * * * * * * * * * * * * * * * * * * * * * * * //

dimensions      [0 0 0 0 0 0 0];


internalField   nonuniform List<symmTensor> 
2560
(
(-0.000514684 -4.49544e-05 0 0.000199239 0 0)
(-0.000484595 -4.88443e-06 2.15203e-18 0.000204937 5.59395e-19 3.44756e-49)
(-0.00049314 6.81301e-07 2.18998e-18 0.000208095 7.90641e-19 9.74545e-49)
(-0.000489531 2.80676e-08 2.06687e-18 0.000206783 -1.4178e-19 5.03719e-33)
(-0.000490453 -2.64219e-07 -2.17805e-18 0.000206935 -1.34586e-18 -4.14726e-49)
(-0.000487935 -7.20707e-07 0 0.000205828 0 0)
(-0.00048572 -9.10085e-07 0 0.000204851 0 0)
(-0.000482727 -1.02349e-06 2.14374e-18 0.000203579 2.21024e-18 6.81082e-49)
(-0.000479746 -1.06934e-06 2.1305e-18 0.000202314 2.49542e-18 4.84446e-47)
(-0.000476606 -1.09106e-06 -2.11656e-18 0.000200989 -2.77867e-18 5.30872e-47)
(-0.000473471 -1.09917e-06 -2.10263e-18 0.000199666 -3.06002e-18 -9.42941e-49)
(-0.000470306 -1.10251e-06 -1.33383e-17 0.000198331 -8.80769e-19 -3.12911e-32)
(-0.000467145 -1.10359e-06 0 0.000196998 0 0)
(-0.000463978 -1.10399e-06 -1.55512e-17 0.000195663 -8.68917e-19 -3.08701e-32)
(-0.000460813 -1.10409e-06 0 0.000194328 0 0)
(-0.000457647 -1.10413e-06 0 0.000192992 0 0)
(-0.000454481 -1.10413e-06 -1.88142e-17 0.000191658 -8.51131e-19 -3.02382e-32)
(-0.000451315 -1.10409e-06 0 0.000190322 0 0)
(-0.000448151 -1.10393e-06 -2.09521e-17 0.000188988 -8.39276e-19 -2.9817e-32)
(-0.000444985 -1.1036e-06 0 0.000187653 0 0)
(-0.000441825 -1.10293e-06 2.306e-17 0.00018632 8.27429e-19 -2.93961e-32)
(-0.000438657 -1.10189e-06 -1.94803e-18 0.000184985 -6.03056e-18 1.85831e-48)
(-0.000435515 -1.10035e-06 0 0.000183658 0 0)
(-0.000432333 -1.10034e-06 1.50028e-17 0.000182318 6.95114e-18 -1.23477e-31)
(-0.000429228 -1.10042e-06 0 0.000180999 0 0)
(-0.000425982 -1.1298e-06 2.81986e-17 0.000179651 7.97811e-19 -2.83439e-32)
(-0.000422738 -1.14218e-06 1.27236e-17 0.000178201 -6.90986e-18 1.22744e-31)
(-0.000419614 -1.19205e-06 -7.75168e-33 0.000177069 -3.35292e-32 2.0664e-62)
(-0.000415503 -1.60587e-06 3.30246e-17 0.000175546 8.58157e-18 -3.04878e-31)
(-0.000412431 -1.01224e-06 0 0.000173789 0 0)
(-0.000409786 -1.12849e-06 0 0.00017272 0 0)
(-0.000406561 -1.06895e-06 3.2308e-17 0.000171449 -7.77174e-18 2.76107e-31)
(-0.000403619 -1.10122e-06 6.0842e-34 0.0001702 1.31118e-35 -8.08072e-66)
(-0.000400364 -1.11263e-06 3.78027e-17 0.000168838 9.76091e-18 -3.46777e-31)
(-0.000397212 -1.11498e-06 0 0.000167507 0 0)
(-0.000394005 -1.10764e-06 0 0.000166154 0 0)
(-0.000390858 -1.09967e-06 -1.73576e-18 0.000164828 -9.71355e-18 -1.53851e-45)
(-0.000387709 -1.09743e-06 -1.37933e-33 0.0001635 -2.51911e-35 -3.10504e-65)
(-0.00038457 -1.09571e-06 4.23786e-17 0.000162176 1.08928e-17 -3.86988e-31)
(-0.000381432 -1.09558e-06 -1.6939e-18 0.000160853 -1.03993e-17 9.6136e-48)
(-0.000378296 -1.09764e-06 1.67997e-18 0.00015953 1.06243e-17 -1.68603e-45)
(-0.000375146 -1.10195e-06 -5.91875e-32 0.000158201 -3.85377e-31 2.16011e-72)
(-0.000371991 -1.10827e-06 -1.65197e-18 0.000156872 -1.10686e-17 1.74632e-45)
(-0.000368798 -1.12194e-06 0 0.000155527 0 0)
(-0.000365582 -1.11045e-06 -1.62351e-18 0.000154165 -1.15053e-17 0)
(-0.00036245 -1.08754e-06 3.2192e-18 0.000152849 2.34409e-17 0)
(-0.000359346 -1.09027e-06 0 0.000151541 0 0)
(-0.000356207 -1.09751e-06 2.80998e-32 0.000150215 2.15755e-31 0)
(-0.000353061 -1.10072e-06 9.88083e-17 0.000148889 1.3224e-18 -9.39622e-32)
(-0.000349903 -1.10501e-06 -3.10776e-18 0.000147556 -2.51282e-17 -7.92904e-45)
(-0.000346738 -1.10551e-06 3.07965e-18 0.000146222 2.55407e-17 0)
(-0.000343573 -1.10647e-06 -8.07673e-32 0.000144887 -6.86823e-31 5.73616e-72)
(-0.000340406 -1.10636e-06 -1.51171e-18 0.000143551 -1.31772e-17 -2.079e-45)
(-0.000337239 -1.10728e-06 -5.34918e-17 0.000142216 -6.31567e-19 -2.24377e-32)
(-0.00033407 -1.10803e-06 -5.57703e-17 0.000140879 -1.42023e-17 -5.04565e-31)
(-0.000330897 -1.11114e-06 -2.45982e-17 0.000139542 2.72372e-17 4.83829e-31)
(-0.000327713 -1.11353e-06 0 0.000138199 0 0)
(-0.000324527 -1.11713e-06 -1.44119e-18 0.000136856 -1.41616e-17 0)
(-0.000321322 -1.11782e-06 -1.26739e-32 0.000135504 -1.27478e-31 1.78634e-73)
(-0.000318138 -1.10297e-06 -3.04867e-17 0.00013416 -1.48397e-17 -2.63606e-31)
(-0.000315007 -1.095e-06 -2.66507e-17 0.000132842 2.91633e-17 5.18044e-31)
(-0.000311864 -1.10218e-06 -9.79148e-32 0.000131515 -1.05446e-30 1.17618e-71)
(-0.000308701 -1.10543e-06 -1.37091e-18 0.000130181 -1.50985e-17 0)
(-0.000305535 -1.10803e-06 -6.11018e-17 0.000128846 -5.72193e-19 -2.03283e-32)
(-0.000302362 -1.10886e-06 -6.31645e-17 0.000127508 -1.60266e-17 -5.69379e-31)
(-0.000299191 -1.10832e-06 2.65735e-18 0.000126171 3.1277e-17 1.97578e-44)
(-0.000296021 -1.10777e-06 -4.38809e-33 0.000124834 -3.84675e-35 -9.48295e-65)
(-0.000292854 -1.10701e-06 2.08838e-32 0.000123498 2.84003e-31 3.5006e-61)
(-0.000289687 -1.10655e-06 6.46263e-17 0.000122163 5.42513e-19 -1.92739e-32)
(-0.000286522 -1.10619e-06 -3.51991e-17 0.000120828 -3.29325e-17 -5.84997e-31)
(-0.000283358 -1.10603e-06 -3.17334e-17 0.000119494 1.62355e-17 2.884e-31)
(-0.000280193 -1.10595e-06 1.15621e-33 0.000118159 9.10267e-36 -5.60994e-66)
(-0.000277029 -1.10593e-06 1.32622e-32 0.000116825 1.49522e-31 -1.84299e-61)
(-0.000273865 -1.10593e-06 -6.79632e-17 0.000115491 -5.12883e-19 -1.82212e-32)
(-0.000270702 -1.10591e-06 -6.98103e-17 0.000114157 -1.76639e-17 -6.27547e-31)
(-0.000267537 -1.1059e-06 -3.22466e-17 0.000112822 3.43821e-17 6.10748e-31)
(-0.000264373 -1.10588e-06 -8.78528e-32 0.000111488 -1.23541e-30 -3.04553e-60)
(-0.000261208 -1.10585e-06 -4.32451e-32 0.000110153 -6.20076e-31 -7.64301e-61)
(-0.000258043 -1.10585e-06 -1.78888e-32 0.000108818 -3.15875e-31 3.89345e-61)
(-0.000254878 -1.10584e-06 -3.81239e-17 0.000107484 -3.61086e-17 -6.41417e-31)
(-0.000251712 -1.10585e-06 -3.61601e-17 0.000106149 -2.35698e-19 -4.18682e-33)
(-0.000248547 -1.10588e-06 -7.07051e-17 0.000104814 3.60007e-17 1.279e-30)
(-0.000245381 -1.10587e-06 7.34975e-17 0.000103479 4.59539e-19 -1.63261e-32)
(-0.000242215 -1.10591e-06 -3.91888e-17 0.000102144 -3.72741e-17 -6.62121e-31)
(-0.00023905 -1.10598e-06 -7.46449e-17 0.000100809 -4.47683e-19 -1.59049e-32)
(-0.000235885 -1.10616e-06 -7.52074e-17 9.94742e-05 -4.41755e-19 -1.56942e-32)
(-0.00023272 -1.10637e-06 -7.47288e-17 9.81397e-05 1.85097e-17 6.57595e-31)
(-0.000229553 -1.10706e-06 -7.94258e-33 9.6804e-05 -4.47451e-35 -1.65458e-64)
(-0.000226388 -1.10775e-06 -3.94302e-17 9.54692e-05 -1.94293e-17 -3.45134e-31)
(-0.000223212 -1.1113e-06 -7.73821e-17 9.41307e-05 -4.18025e-19 -1.48512e-32)
(-0.000220035 -1.11294e-06 -3.89534e-17 9.2789e-05 -2.06033e-19 -3.65988e-33)
(-0.000216843 -1.1253e-06 -7.64981e-17 9.14485e-05 3.88159e-17 1.37902e-30)
(-0.000213596 -1.11984e-06 7.89332e-17 9.00677e-05 3.99982e-19 -1.42102e-32)
(-0.000210482 -1.09377e-06 -4.15862e-17 8.87723e-05 -3.99236e-17 -7.09184e-31)
(-0.000207318 -1.12262e-06 -3.99649e-17 8.74743e-05 -1.94232e-19 -3.45025e-33)
(-0.000204083 -1.11791e-06 -8.04212e-17 8.6043e-05 -3.82108e-19 -1.35752e-32)
(-0.000200872 -1.11964e-06 -3.86657e-17 8.46947e-05 4.02718e-17 7.15369e-31)
(-0.000197762 -1.08423e-06 8.13711e-17 8.33973e-05 3.70359e-19 -1.31578e-32)
(-0.000194638 -1.09002e-06 -8.35646e-17 8.20819e-05 -4.12921e-17 -1.46699e-30)
(-0.000191598 -1.07735e-06 -4.11465e-17 8.07989e-05 -1.7941e-19 -3.18695e-33)
(-0.000188444 -1.10944e-06 -4.1372e-17 7.95079e-05 -1.76543e-19 -3.13603e-33)
(-0.00018552 -1.06061e-06 -8.23657e-17 7.82953e-05 2.04544e-17 7.26686e-31)
(-0.000182415 -1.3271e-06 -8.36159e-17 7.67827e-05 -3.40984e-19 -1.21142e-32)
(-0.000178818 -1.14391e-06 -8.48383e-17 7.53574e-05 -2.13508e-17 -7.58532e-31)
(-0.000175694 -1.11969e-06 -8.44676e-17 7.4122e-05 -3.29168e-19 -1.16944e-32)
(-0.000172453 -1.10697e-06 -4.24404e-17 7.27136e-05 -1.61457e-19 -2.86804e-33)
(-0.000169387 -1.0577e-06 -4.11384e-17 7.14263e-05 4.24937e-17 7.54839e-31)
(-0.0001661 -1.02915e-06 8.56845e-17 6.99711e-05 3.10735e-19 -1.10395e-32)
(-0.000163646 -7.43804e-07 -4.4495e-17 6.89724e-05 -4.32013e-17 -7.67408e-31)
(-0.000160599 -6.70339e-07 -4.32323e-17 6.80155e-05 -1.51025e-19 -2.68274e-33)
(-0.000156373 -1.39026e-06 -4.34114e-17 6.60104e-05 -1.46573e-19 -2.60365e-33)
(-0.000153301 -1.05599e-06 -8.58369e-17 6.45803e-05 4.33219e-17 1.5391e-30)
(-0.000150226 -1.12925e-06 8.75579e-17 6.33453e-05 2.8131e-19 -9.99412e-33)
(-0.000147047 -1.09728e-06 -4.52611e-17 6.2006e-05 -4.41025e-17 -7.83417e-31)
(-0.00014393 -1.1037e-06 -8.82548e-17 6.06952e-05 -2.69541e-19 -9.576e-33)
(-0.000140761 -1.10406e-06 -4.4296e-17 5.93596e-05 -1.31805e-19 -2.34132e-33)
(-0.00013761 -1.10573e-06 -8.76994e-17 5.80307e-05 4.4213e-17 1.57076e-30)
(-0.000134442 -1.1068e-06 8.92439e-17 5.66952e-05 2.51777e-19 -8.94491e-33)
(-0.000131282 -1.10768e-06 -9.07246e-17 5.53623e-05 -4.5035e-17 -1.59996e-30)
(-0.000128106 -1.10823e-06 -8.98658e-17 5.40228e-05 -2.3991e-19 -8.52329e-33)
(-0.000124954 -1.10766e-06 -9.01654e-17 5.26931e-05 -2.34005e-19 -8.31349e-33)
(-0.000121746 -1.10462e-06 -4.41475e-17 5.13372e-05 4.51247e-17 8.01574e-31)
(-0.00011867 -1.07938e-06 9.07424e-17 5.00364e-05 2.22206e-19 -7.89433e-33)
(-0.000115368 -1.06569e-06 -9.20451e-17 4.86e-05 -4.57355e-17 -1.62485e-30)
(-0.000112687 -8.46844e-07 -4.56479e-17 4.74863e-05 -1.05441e-19 -1.873e-33)
(-0.000109623 -8.02173e-07 -4.57783e-17 4.64148e-05 -1.03061e-19 -1.83074e-33)
(-0.00010576 -1.29944e-06 -4.54314e-17 4.46685e-05 2.28571e-17 4.06024e-31)
(-0.000102656 -1.07966e-06 -1.61962e-32 4.32486e-05 -8.17793e-31 0)
(-9.95292e-05 -1.11684e-06 -9.27364e-17 4.19637e-05 -2.32649e-17 -8.26535e-31)
(-9.63977e-05 -1.09074e-06 -4.62631e-17 4.06507e-05 -9.02628e-20 -1.60339e-33)
(-9.32837e-05 -1.10153e-06 -4.63754e-17 3.9337e-05 -8.73458e-20 -1.55157e-33)
(-9.01254e-05 -1.1018e-06 -4.56835e-17 3.80067e-05 4.64094e-17 8.24395e-31)
(-8.69808e-05 -1.10459e-06 9.31777e-17 3.668e-05 1.62892e-19 -5.78707e-33)
(-8.38198e-05 -1.10462e-06 -4.74345e-17 3.53472e-05 -4.67784e-17 -8.30949e-31)
(-8.06688e-05 -1.10681e-06 -9.35749e-17 3.40185e-05 -1.51072e-19 -5.36716e-33)
(-7.74993e-05 -1.11244e-06 -4.68812e-17 3.26837e-05 -7.25721e-20 -1.28915e-33)
(-7.43243e-05 -1.10821e-06 -4.63109e-17 3.13437e-05 4.69113e-17 8.33311e-31)
(-7.11691e-05 -1.10315e-06 9.4114e-17 3.00122e-05 1.33281e-19 -4.73507e-33)
(-6.80166e-05 -1.1062e-06 -4.77436e-17 2.86834e-05 -4.7213e-17 -8.3867e-31)
(-6.48484e-05 -1.11001e-06 -9.44363e-17 2.73466e-05 -1.21444e-19 -4.31452e-33)
(-6.16782e-05 -1.10958e-06 -4.72931e-17 2.601e-05 -5.77539e-20 -1.02592e-33)
(-5.85102e-05 -1.1099e-06 -4.68446e-17 2.46739e-05 4.73194e-17 8.4056e-31)
(-5.53412e-05 -1.10931e-06 9.48634e-17 2.33377e-05 1.0364e-19 -3.68202e-33)
(-5.21752e-05 -1.10906e-06 -9.54541e-17 2.20027e-05 -4.7603e-17 -1.69119e-30)
(-4.90082e-05 -1.10914e-06 -4.75553e-17 2.06672e-05 -4.58903e-20 -8.15175e-34)
(-4.58414e-05 -1.10919e-06 -9.52228e-17 1.93315e-05 -8.58494e-20 -3.04997e-33)
(-4.26747e-05 -1.10927e-06 -4.74743e-17 1.79962e-05 2.37969e-17 4.22717e-31)
(-3.95072e-05 -1.1091e-06 1.22721e-32 1.66606e-05 2.1193e-30 2.61223e-60)
(-3.63416e-05 -1.10777e-06 -4.79188e-17 1.53255e-05 -2.39177e-17 -4.24862e-31)
(-3.31803e-05 -1.10686e-06 -4.77985e-17 1.39924e-05 -3.10695e-20 -5.51904e-34)
(-3.00196e-05 -1.10689e-06 -9.56718e-17 1.26595e-05 -5.62192e-20 -1.99732e-33)
(-2.68589e-05 -1.10566e-06 -9.56199e-17 1.13264e-05 2.38894e-17 8.48721e-31)
(-2.37049e-05 -1.10222e-06 -1.43501e-33 9.99588e-06 4.29774e-31 5.29737e-61)
(-2.05614e-05 -1.09337e-06 -9.59428e-17 8.66921e-06 -2.40062e-17 -8.52872e-31)
(-1.74549e-05 -1.07424e-06 -9.58966e-17 7.35645e-06 -3.26688e-20 -1.16066e-33)
(-1.43985e-05 -1.03187e-06 -4.79674e-17 6.06082e-06 -1.34579e-20 -2.39054e-34)
(-1.151e-05 -9.62236e-07 -9.58651e-17 4.82561e-06 4.79708e-17 1.70426e-30)
(-8.72824e-06 -8.33316e-07 9.59972e-17 3.62655e-06 1.61048e-20 -5.72179e-34)
(-6.51394e-06 -9.70097e-07 -4.80737e-17 2.67849e-06 -4.80305e-17 -8.53191e-31)
(-3.33636e-06 -2.34967e-06 -4.80524e-17 2.24105e-06 -9.95229e-21 -3.53573e-34)
(-0.000419864 -5.7022e-05 0 0.000145677 0 0)
(-0.000431618 -9.55067e-06 -9.13355e-20 0.000180654 -5.15656e-19 0)
(-0.000431855 -8.04431e-07 3.14478e-18 0.000185564 1.64814e-18 0)
(-0.000427964 -1.07144e-06 -1.90054e-18 0.000185418 -2.12146e-18 0)
(-0.000426507 -1.49229e-06 -5.35966e-18 0.000184742 -1.64083e-18 0)
(-0.000423574 -2.44404e-06 0 0.00018345 0 0)
(-0.000421221 -2.85333e-06 0 0.000182338 0 0)
(-0.000418465 -3.12573e-06 1.06494e-17 0.00018111 6.03185e-18 0)
(-0.000415814 -3.23503e-06 1.84658e-18 0.000179935 4.99368e-18 0)
(-0.000413068 -3.29157e-06 9.22762e-18 0.000178738 -3.97273e-18 0)
(-0.000410343 -3.31225e-06 1.21871e-17 0.000177553 1.57699e-18 0)
(-0.000407598 -3.32162e-06 5.59508e-33 0.000176364 -1.31302e-32 0)
(-0.000404858 -3.32454e-06 1.44149e-17 0.000175177 1.55589e-18 0)
(-0.000402113 -3.32571e-06 0 0.000173989 0 0)
(-0.00039937 -3.32594e-06 1.48392e-17 0.000172802 -6.80111e-18 0)
(-0.000396626 -3.32599e-06 1.06116e-17 0.000171615 9.64187e-18 0)
(-0.000393883 -3.32587e-06 7.76798e-33 0.000170428 4.18325e-32 0)
(-0.000391139 -3.3256e-06 1.98533e-17 0.000169241 1.50316e-18 0)
(-0.000388397 -3.32505e-06 -2.09185e-17 0.000168054 -1.49262e-18 0)
(-0.000385653 -3.32394e-06 1.85509e-17 0.000166867 -2.05531e-17 0)
(-0.000382915 -3.32209e-06 2.30264e-17 0.000165682 1.47155e-18 0)
(-0.000380169 -3.31928e-06 1.20345e-17 0.000164494 7.305e-19 0)
(-0.000377446 -3.31472e-06 -1.33903e-17 0.000163315 -7.01607e-18 0)
(-0.000374691 -3.31962e-06 2.7796e-17 0.000162128 1.45355e-17 0)
(-0.000372019 -3.30559e-06 1.27501e-17 0.000160979 -6.08787e-18 0)
(-0.000369253 -3.45772e-06 2.73436e-17 0.000159805 -5.63689e-18 0)
(-0.000366674 -3.25574e-06 1.45849e-17 0.000158772 7.05091e-19 0)
(-0.000364182 -4.22232e-06 -3.09513e-17 0.000157488 -8.95318e-18 0)
(-0.000359412 -2.83761e-06 1.71787e-17 0.000155101 1.62966e-17 0)
(-0.000356757 -2.22697e-06 3.3751e-17 0.000154342 1.74739e-17 0)
(-0.000355423 -3.15513e-06 3.15392e-17 0.000153888 -1.522e-17 0)
(-0.000352386 -3.1363e-06 3.25172e-17 0.000152506 -1.57144e-17 0)
(-0.000349845 -3.30078e-06 -3.50397e-17 0.000151391 -1.34462e-18 0)
(-0.000347003 -3.34146e-06 1.95365e-17 0.000150152 1.8692e-17 0)
(-0.000344268 -3.3531e-06 1.99964e-17 0.000148959 1.91589e-17 0)
(-0.000341486 -3.33377e-06 3.78719e-17 0.00014775 1.31228e-18 0)
(-0.000338757 -3.31131e-06 3.72968e-17 0.000146573 -1.81281e-17 0)
(-0.000336024 -3.30505e-06 -4.12152e-17 0.000145391 -2.11822e-17 0)
(-0.0003333 -3.29971e-06 2.17988e-17 0.000144214 2.09884e-17 0)
(-0.000330576 -3.29866e-06 2.07722e-17 0.000143036 6.35209e-19 0)
(-0.000327856 -3.30398e-06 -4.09882e-17 0.000141861 1.99914e-17 0)
(-0.000325126 -3.31471e-06 -1.20283e-32 0.000140681 -3.46806e-34 0)
(-0.000322399 -3.33143e-06 -2.35423e-17 0.000139503 -2.27597e-17 0)
(-0.000319641 -3.36917e-06 -3.44414e-32 0.000138311 -5.97529e-31 0)
(-0.00031686 -3.33656e-06 -2.43909e-17 0.000137083 -2.36222e-17 0)
(-0.000314146 -3.27589e-06 -2.06245e-17 0.000135921 4.62839e-17 0)
(-0.000311451 -3.28493e-06 4.76837e-17 0.000134766 1.19696e-18 0)
(-0.000308722 -3.30518e-06 -5.12728e-17 0.00013358 -4.9776e-17 0)
(-0.00030599 -3.31337e-06 1.40487e-31 0.000132402 3.51093e-30 0)
(-0.00030325 -3.32505e-06 -2.51015e-17 0.000131213 -5.82701e-19 0)
(-0.000300505 -3.32626e-06 -4.83591e-17 0.000130026 4.99323e-17 0)
(-0.000297762 -3.32887e-06 -1.439e-32 0.000128838 -3.1761e-34 0)
(-0.000295018 -3.32856e-06 -2.63278e-17 0.000127651 -5.66883e-19 0)
(-0.000292274 -3.33105e-06 1.29796e-18 0.000126464 2.67586e-17 0)
(-0.000289529 -3.33293e-06 -2.90552e-17 0.000125276 -4.12906e-17 0)
(-0.000286781 -3.34138e-06 -5.37669e-17 0.000124089 2.64478e-17 0)
(-0.000284026 -3.34747e-06 -6.30664e-19 0.000122895 -1.397e-17 0)
(-0.00028127 -3.35757e-06 -2.95454e-17 0.000121704 -2.88666e-17 0)
(-0.000278495 -3.35942e-06 -5.67387e-17 0.000120497 1.3284e-17 0)
(-0.000275735 -3.31965e-06 -5.87264e-17 0.000119294 -1.56028e-17 0)
(-0.000273017 -3.29847e-06 -5.70451e-17 0.000118134 4.31425e-17 0)
(-0.000270288 -3.31806e-06 -6.0016e-19 0.000116953 -1.49162e-17 0)
(-0.000267542 -3.32631e-06 -6.03407e-17 0.000115764 -1.02819e-18 0)
(-0.000264796 -3.33289e-06 1.17593e-18 0.000114575 3.05637e-17 0)
(-0.000262046 -3.33496e-06 -3.32215e-17 0.000113383 -6.23508e-17 0)
(-0.000259298 -3.3333e-06 -6.1349e-17 0.000112195 3.02834e-17 0)
(-0.000256551 -3.33176e-06 6.32054e-17 0.000111006 9.85929e-19 0)
(-0.000253806 -3.32963e-06 -3.30785e-17 0.000109818 -3.24686e-17 0)
(-0.000251062 -3.3284e-06 5.5747e-19 0.000108631 1.61629e-17 0)
(-0.000248319 -3.32744e-06 -3.31889e-17 0.000107444 -1.68107e-17 0)
(-0.000245576 -3.32699e-06 -6.54046e-17 0.000106258 1.55585e-17 0)
(-0.000242834 -3.32669e-06 -6.71565e-17 0.000105071 -1.76023e-17 0)
(-0.000240092 -3.32659e-06 -6.6211e-17 0.000103885 3.27455e-17 0)
(-0.00023735 -3.32657e-06 1.05404e-18 0.000102698 3.39943e-17 0)
(-0.000234607 -3.32666e-06 -3.585e-17 0.000101511 -5.1926e-17 0)
(-0.000231865 -3.32683e-06 -6.81822e-17 0.000100325 3.37444e-17 0)
(-0.000229122 -3.32697e-06 -5.08754e-19 9.91381e-05 -1.74752e-17 0)
(-0.00022638 -3.32711e-06 -3.52321e-17 9.79514e-05 -4.34992e-19 0)
(-0.000223637 -3.32726e-06 7.15757e-17 9.67646e-05 1.8644e-17 0)
(-0.000220893 -3.32738e-06 -3.73147e-17 9.55776e-05 -5.42337e-17 0)
(-0.00021815 -3.32753e-06 -7.18021e-17 9.43906e-05 1.72481e-17 0)
(-0.000215407 -3.32766e-06 -7.24007e-17 9.32037e-05 1.74067e-17 0)
(-0.000212663 -3.32764e-06 7.29917e-17 9.20167e-05 -1.75635e-17 0)
(-0.00020992 -3.3276e-06 -7.40413e-17 9.08297e-05 -8.0673e-19 0)
(-0.000207177 -3.32752e-06 -7.41513e-17 8.96429e-05 1.78714e-17 0)
(-0.000204433 -3.32769e-06 -7.51737e-17 8.84559e-05 -7.85647e-19 0)
(-0.000201691 -3.32799e-06 -7.57287e-17 8.72694e-05 -7.75108e-19 0)
(-0.000198946 -3.32976e-06 -4.4175e-19 8.60823e-05 -1.90838e-17 0)
(-0.000196206 -3.33124e-06 -7.6816e-17 8.48965e-05 -7.54032e-19 0)
(-0.000193456 -3.34169e-06 -7.73484e-17 8.37091e-05 -7.43487e-19 0)
(-0.000190714 -3.34227e-06 -7.78731e-17 8.25222e-05 -7.32944e-19 0)
(-0.000187958 -3.38467e-06 -7.79725e-17 8.13337e-05 1.88901e-17 0)
(-0.000185169 -3.34471e-06 7.84884e-17 8.01184e-05 -1.90281e-17 0)
(-0.000182431 -3.30228e-06 -7.98048e-17 7.88844e-05 -2.05652e-17 0)
(-0.000179526 -3.37156e-06 -7.94973e-17 7.76667e-05 1.92991e-17 0)
(-0.000176784 -3.34132e-06 -8.0388e-17 7.65072e-05 -6.7952e-19 0)
(-0.000174118 -3.33318e-06 -8.08661e-17 7.53273e-05 -6.69041e-19 0)
(-0.000171396 -3.25045e-06 8.17189e-17 7.41642e-05 2.10077e-17 0)
(-0.000168686 -3.27104e-06 -8.21773e-17 7.29822e-05 -2.11134e-17 0)
(-0.000166044 -3.20464e-06 -8.26295e-17 7.18346e-05 -2.12174e-17 0)
(-0.000163199 -3.23035e-06 -8.23493e-17 7.05703e-05 2.00655e-17 0)
(-0.000161088 -2.82065e-06 -8.20916e-17 6.9713e-05 6.17919e-17 0)
(-0.000158401 -3.10605e-06 2.96975e-32 6.87193e-05 2.1684e-34 0)
(-0.000154743 -3.7286e-06 -8.46909e-17 6.69949e-05 -4.263e-17 0)
(-0.000152127 -3.29791e-06 -8.47723e-17 6.5768e-05 -2.17074e-17 0)
(-0.000149391 -3.36899e-06 -8.51783e-17 6.46203e-05 -2.18006e-17 0)
(-0.000146726 -3.31478e-06 -8.4926e-17 6.3459e-05 2.0764e-17 0)
(-0.000143504 -3.20187e-06 8.56514e-17 6.20803e-05 5.51384e-19 0)
(-0.000141509 -3.36086e-06 -8.63542e-17 6.12092e-05 -2.20686e-17 0)
(-0.000134239 -4.37699e-06 -9.48729e-17 5.75777e-05 1.6746e-17 0)
(-0.000135908 -3.13293e-06 -8.64984e-17 5.88765e-05 2.1191e-17 0)
(-0.000132482 -3.17177e-06 -8.68727e-17 5.73413e-05 2.12965e-17 0)
(-0.000130217 -3.27438e-06 8.72361e-17 5.63458e-05 -2.13954e-17 0)
(-0.000127417 -3.29354e-06 -8.78769e-17 5.51359e-05 -4.89705e-19 0)
(-0.000124741 -3.3099e-06 -8.82214e-17 5.3975e-05 -4.79394e-19 0)
(-0.000121991 -3.31927e-06 -8.85584e-17 5.27859e-05 -4.68833e-19 0)
(-0.000119261 -3.32378e-06 -8.86233e-17 5.16035e-05 2.17784e-17 0)
(-0.000116516 -3.32738e-06 8.92102e-17 5.04157e-05 4.47782e-19 0)
(-0.000113777 -3.33038e-06 -8.95249e-17 4.92301e-05 -4.37251e-19 0)
(-0.000111023 -3.33198e-06 -8.98321e-17 4.80391e-05 -4.26673e-19 0)
(-0.000108292 -3.33709e-06 -9.03722e-17 4.6855e-05 -2.29639e-17 0)
(-0.00010549 -3.32982e-06 -9.0424e-17 4.56435e-05 -4.05396e-19 0)
(-0.000102811 -3.34088e-06 9.09366e-17 4.44702e-05 2.30869e-17 0)
(-9.96765e-05 -3.27886e-06 -9.12081e-17 4.31259e-05 -2.31443e-17 0)
(-9.74604e-05 -3.3503e-06 -9.1472e-17 4.21494e-05 -2.32031e-17 0)
(-9.15e-05 -4.04155e-06 -1.00539e-16 3.92563e-05 1.79401e-17 0)
(-9.1844e-05 -3.17089e-06 -9.15724e-17 3.97834e-05 2.26048e-17 0)
(-8.87095e-05 -3.23201e-06 1.96975e-19 3.83699e-05 2.30203e-17 0)
(-8.63009e-05 -3.28255e-06 -9.24531e-17 3.73422e-05 -2.34116e-17 0)
(-8.35429e-05 -3.2727e-06 -9.26787e-17 3.61546e-05 -2.34589e-17 0)
(-8.08557e-05 -3.30629e-06 -9.27174e-17 3.49875e-05 -3.10751e-19 0)
(-7.81097e-05 -3.31114e-06 -9.2761e-17 3.37995e-05 2.29481e-17 0)
(-7.53823e-05 -3.31921e-06 9.31442e-17 3.26179e-05 2.89705e-19 0)
(-7.26411e-05 -3.31935e-06 -9.33465e-17 3.14311e-05 -2.79165e-19 0)
(-6.9911e-05 -3.3238e-06 -9.35413e-17 3.02521e-05 -2.68693e-19 0)
(-6.7166e-05 -3.33668e-06 -9.38778e-17 2.90634e-05 -2.37051e-17 0)
(-6.44212e-05 -3.32877e-06 -9.37654e-17 2.78652e-05 2.32444e-17 0)
(-6.16859e-05 -3.3195e-06 9.40805e-17 2.66912e-05 2.37065e-19 0)
(-5.89485e-05 -3.32483e-06 -9.42453e-17 2.55103e-05 -2.26577e-19 0)
(-5.62012e-05 -3.33496e-06 -9.44026e-17 2.43181e-05 -2.15988e-19 0)
(-5.34525e-05 -3.33315e-06 -9.46712e-17 2.31289e-05 -2.38584e-17 0)
(-5.07077e-05 -3.33376e-06 -9.45823e-17 2.19403e-05 2.34937e-17 0)
(-4.79616e-05 -3.3321e-06 9.49362e-17 2.07522e-05 2.39065e-17 0)
(-4.52182e-05 -3.33148e-06 -9.50575e-17 1.95652e-05 -2.39278e-17 0)
(-4.24741e-05 -3.33165e-06 -9.50769e-17 1.83781e-05 -1.6323e-19 0)
(-3.973e-05 -3.33171e-06 -9.51892e-17 1.71903e-05 -1.52681e-19 0)
(-3.69859e-05 -3.33194e-06 -9.5294e-17 1.60034e-05 -1.42138e-19 0)
(-3.4241e-05 -3.33154e-06 4.66012e-33 1.48153e-05 4.2389e-31 0)
(-3.14974e-05 -3.32806e-06 -9.5551e-17 1.36275e-05 -2.40061e-17 0)
(-2.87573e-05 -3.32558e-06 -9.54996e-17 1.24426e-05 2.37951e-17 0)
(-2.60173e-05 -3.32558e-06 -9.55805e-17 1.12568e-05 2.38244e-17 0)
(-2.32763e-05 -3.32229e-06 -9.57056e-17 1.00703e-05 -8.94418e-20 0)
(-2.05381e-05 -3.31359e-06 0 8.88318e-06 0 0)
(-1.78011e-05 -3.2925e-06 -9.58182e-17 7.6945e-06 -6.83409e-20 0)
(-1.50762e-05 -3.24905e-06 -9.58972e-17 6.50698e-06 -2.40381e-17 0)
(-1.23506e-05 -3.15842e-06 -9.59027e-17 5.31385e-06 -4.71965e-20 0)
(-9.65674e-06 -3.02553e-06 -9.59147e-17 4.131e-06 2.39608e-17 0)
(-6.91949e-06 -2.8236e-06 9.59513e-17 2.97497e-06 -2.39778e-17 0)
(-4.24858e-06 -3.09581e-06 -9.5995e-17 2.11168e-06 -1.87555e-20 0)
(-2.15488e-06 -4.43698e-06 -4.80118e-17 3.07716e-06 2.39994e-17 -4.2643e-31)
(-0.000342818 -4.26007e-05 8.26618e-19 9.94107e-05 -1.56675e-19 0)
(-0.00036638 -9.39393e-06 -7.20081e-34 0.000145031 -5.03449e-34 0)
(-0.000368402 -4.47672e-06 3.06189e-18 0.000154657 1.37363e-18 0)
(-0.000364844 -3.41504e-06 1.62023e-18 0.000155967 2.12199e-18 0)
(-0.000362315 -3.55917e-06 -6.93797e-18 0.000154865 -4.07158e-18 0)
(-0.000359152 -4.28741e-06 1.64168e-18 0.000153428 -2.59335e-18 0)
(-0.000356752 -4.62982e-06 -9.20542e-18 0.000152198 -5.20347e-18 0)
(-0.000354229 -4.89293e-06 1.57309e-18 0.000151028 4.42581e-18 0)
(-0.0003519 -4.99979e-06 1.64179e-17 0.000149972 6.99414e-18 0)
(-0.00034954 -5.06106e-06 -3.10454e-18 0.000148941 -1.11253e-17 0)
(-0.00034722 -5.08348e-06 3.13437e-32 0.000147939 8.27726e-32 0)
(-0.000344892 -5.0947e-06 1.99169e-17 0.000146942 1.95767e-18 0)
(-0.000342572 -5.09822e-06 3.56031e-32 0.000145951 9.78287e-32 0)
(-0.000340249 -5.0998e-06 3.09815e-17 0.000144961 2.57503e-18 0)
(-0.000337928 -5.10012e-06 1.58356e-17 0.000143972 -2.8904e-18 0)
(-0.000335606 -5.10019e-06 1.49039e-18 0.000142983 8.8821e-18 0)
(-0.000333285 -5.1e-06 3.67676e-17 0.000141994 -2.18878e-18 0)
(-0.000330963 -5.09956e-06 1.46977e-18 0.000141005 9.95854e-18 0)
(-0.000328643 -5.09873e-06 3.13375e-17 0.000140016 1.86538e-18 0)
(-0.000326321 -5.09699e-06 1.90511e-17 0.000139026 -2.08051e-17 0)
(-0.000324004 -5.09423e-06 -2.22802e-17 0.000138038 4.5465e-18 0)
(-0.000321679 -5.08891e-06 2.47566e-17 0.000137048 7.25041e-18 0)
(-0.00031938 -5.08076e-06 -2.57868e-17 0.000136066 -7.50048e-18 0)
(-0.00031704 -5.06879e-06 -1.30528e-17 0.000135075 -5.99851e-19 0)
(-0.000314866 -5.03443e-06 1.35631e-17 0.000134153 5.95758e-19 0)
(-0.000312413 -5.02457e-06 -2.81393e-17 0.000133129 -1.18243e-18 0)
(-0.000311326 -4.77225e-06 -1.31913e-17 0.000132662 1.40271e-17 0)
(-0.000307275 -4.77653e-06 -3.01442e-17 0.000130829 -1.162e-18 0)
(-0.000316289 -7.53942e-06 -2.89516e-17 0.000135814 -1.04954e-17 0)
(-0.000302521 -5.03033e-06 1.53858e-17 0.00012879 -7.47918e-18 0)
(-0.000301957 -4.85646e-06 0 0.000128703 0 0)
(-0.00029836 -5.08473e-06 -3.27283e-17 0.000127189 1.59421e-17 0)
(-0.000296159 -5.09416e-06 -3.4355e-17 0.000126209 7.6548e-18 0)
(-0.000293657 -5.14803e-06 -3.66158e-17 0.000125129 -1.01252e-17 0)
(-0.000291327 -5.14501e-06 -6.46876e-19 0.000124114 -9.24988e-18 0)
(-0.00028896 -5.11449e-06 -6.4162e-19 0.000123094 -9.48395e-18 0)
(-0.000286652 -5.08029e-06 1.27299e-18 0.00012212 1.94323e-17 0)
(-0.000284337 -5.07181e-06 -3.90649e-17 0.000121136 8.87068e-18 0)
(-0.000282027 -5.06355e-06 -4.1237e-17 0.000120155 -1.12424e-17 0)
(-0.000279721 -5.06076e-06 2.138e-17 0.000119174 1.09312e-17 0)
(-0.000277418 -5.06678e-06 -4.05695e-17 0.000118197 3.08308e-17 0)
(-0.00027511 -5.07856e-06 4.26989e-17 0.000117217 -9.8089e-18 0)
(-0.000272816 -5.09955e-06 -1.21155e-18 0.000116246 -2.21425e-17 0)
(-0.000270483 -5.15404e-06 -1.6003e-32 0.000115249 -3.00845e-31 0)
(-0.000268125 -5.11031e-06 -4.65362e-17 0.000114189 -1.25221e-17 0)
(-0.000265837 -5.02992e-06 -4.62125e-17 0.000113246 1.07172e-17 0)
(-0.00026356 -5.04351e-06 4.82424e-17 0.000112303 1.29341e-17 0)
(-0.000261241 -5.07465e-06 -4.7344e-17 0.000111305 2.33085e-17 0)
(-0.000258921 -5.08363e-06 -4.99189e-17 0.000110321 -1.33384e-17 0)
(-0.000256599 -5.09949e-06 -5.13158e-17 0.000109324 -2.61044e-17 0)
(-0.000254274 -5.10018e-06 -4.93075e-17 0.000108334 3.73567e-17 0)
(-0.000251952 -5.10357e-06 5.12593e-17 0.000107343 -1.2024e-17 0)
(-0.00024963 -5.10281e-06 -1.10858e-18 0.000106354 -2.63597e-17 0)
(-0.000247309 -5.1061e-06 5.34313e-17 0.000105366 9.3584e-19 0)
(-0.000244989 -5.10804e-06 5.79022e-32 0.000104378 8.44667e-31 0)
(-0.000242667 -5.11967e-06 1.61649e-18 0.000103393 4.13284e-17 0)
(-0.000240341 -5.12707e-06 5.52598e-17 0.000102398 -1.30617e-17 0)
(-0.000238014 -5.14295e-06 -2.82828e-17 0.000101411 -4.50356e-19 0)
(-0.000235663 -5.14804e-06 5.23277e-19 0.000100393 1.43554e-17 0)
(-0.000233323 -5.09308e-06 -1.03616e-18 9.93802e-05 -2.90889e-17 0)
(-0.000231028 -5.06227e-06 1.02597e-18 9.84346e-05 2.94635e-17 0)
(-0.000228716 -5.09207e-06 5.95791e-17 9.74504e-05 8.65534e-19 0)
(-0.000226384 -5.10285e-06 -1.00535e-18 9.6454e-05 -3.02023e-17 0)
(-0.000224058 -5.11049e-06 6.05438e-17 9.54613e-05 -1.44352e-17 0)
(-0.000221729 -5.11276e-06 5.47586e-33 9.44655e-05 -6.8907e-31 0)
(-0.000219404 -5.10978e-06 -6.19865e-17 9.34747e-05 1.48109e-17 0)
(-0.00021708 -5.1075e-06 6.26965e-17 9.24841e-05 -1.49959e-17 0)
(-0.000214757 -5.1044e-06 -6.29222e-17 9.14951e-05 3.11707e-17 0)
(-0.000212436 -5.10265e-06 -2.00891e-31 9.05063e-05 -5.31252e-30 0)
(-0.000210115 -5.10128e-06 -9.33099e-19 8.95177e-05 -3.26694e-17 0)
(-0.000207795 -5.10063e-06 -3.15774e-17 8.85292e-05 4.91171e-17 0)
(-0.000205474 -5.10018e-06 -4.73154e-32 8.75408e-05 -5.5246e-34 0)
(-0.000203154 -5.10003e-06 -9.02185e-19 8.65522e-05 -3.36705e-17 0)
(-0.000200834 -5.10001e-06 6.74568e-17 8.55637e-05 -1.62384e-17 0)
(-0.000198513 -5.10017e-06 3.42738e-17 8.4575e-05 3.75589e-19 0)
(-0.000196193 -5.10044e-06 -3.32856e-17 8.35864e-05 5.15856e-17 0)
(-0.000193872 -5.1007e-06 6.93845e-17 8.25977e-05 -1.67428e-17 0)
(-0.000191551 -5.10096e-06 -7.12881e-17 8.16089e-05 -3.59889e-17 0)
(-0.00018923 -5.10122e-06 7.10524e-17 8.06202e-05 7.16051e-19 0)
(-0.000186909 -5.10145e-06 -1.34709e-32 7.96312e-05 -4.74792e-31 0)
(-0.000184588 -5.10167e-06 -3.572e-17 7.86423e-05 1.77383e-17 0)
(-0.000182267 -5.10184e-06 0 7.76534e-05 0 0)
(-0.000179945 -5.10181e-06 7.34371e-17 7.66646e-05 6.80918e-19 0)
(-0.000177624 -5.10172e-06 -1.11022e-16 7.56758e-05 -1.0082e-18 0)
(-0.000175303 -5.10154e-06 0 7.46871e-05 0 0)
(-0.000172982 -5.10161e-06 0 7.36983e-05 0 0)
(-0.000170662 -5.10178e-06 -7.57019e-17 7.27101e-05 -6.45796e-19 0)
(-0.00016834 -5.10348e-06 3.81246e-17 7.17218e-05 3.18509e-19 0)
(-0.000166026 -5.10451e-06 -1.15184e-16 7.07359e-05 -9.42392e-19 0)
(-0.0001637 -5.11479e-06 0 6.97496e-05 0 0)
(-0.000161402 -5.11385e-06 -3.89232e-17 6.87673e-05 -3.05388e-19 0)
(-0.000159062 -5.16079e-06 0 6.77836e-05 0 0)
(-0.000156746 -5.14242e-06 7.88727e-17 6.67297e-05 5.92679e-19 0)
(-0.00015439 -5.17685e-06 -1.19058e-16 6.57886e-05 -8.76481e-19 0)
(-0.000151687 -5.41027e-06 -3.99321e-17 6.48068e-05 -2.878e-19 0)
(-0.000149468 -5.00963e-06 -8.03625e-17 6.36141e-05 -5.65006e-19 0)
(-0.000147371 -5.10851e-06 -4.04196e-17 6.27101e-05 -2.78489e-19 0)
(-0.000145031 -5.01704e-06 8.13117e-17 6.17828e-05 5.48741e-19 0)
(-0.00014271 -5.03879e-06 -8.1776e-17 6.07884e-05 -5.39909e-19 0)
(-0.000140429 -5.04621e-06 -4.11166e-17 5.98056e-05 -2.6559e-19 0)
(-0.000137556 -4.96507e-06 -4.13425e-17 5.85851e-05 -2.6017e-19 0)
(-0.000136021 -5.05402e-06 0 5.79982e-05 0 0)
(-0.000128571 -6.17217e-06 1.50948e-16 5.4314e-05 3.43546e-17 0)
(-0.000131331 -4.95419e-06 -8.39897e-17 5.59909e-05 -4.97299e-19 0)