/*--------------------------------*- C++ -*----------------------------------*\
| =========                 |                                                 |
| \\      /  F ield         | OpenFOAM: The Open Source CFD Toolbox           |
|  \\    /   O peration     | Version:  v1912                                 |
|   \\  /    A nd           | Website:  www.openfoam.com                      |
|    \\/     M anipulation  |                                                 |
\*---------------------------------------------------------------------------*/
FoamFile
{
    version     2.0;
    format      ascii;
    class       volScalarField;
    location    "1";
    object      epsilonEq;
}
// * * * * * * * * * * * * * * * * * * * * * * * * * * * * * * * * * * * * * //

dimensions      [0 0 0 0 0 0 0];


internalField   nonuniform List<scalar> 
2560
(
0.00042854
0.000408909
0.000415859
0.000412917
0.00041358
0.000411436
0.000409548
0.000407019
0.000404503
0.000401855
0.000399211
0.000396543
0.000393877
0.000391207
0.000388538
0.000385868
0.000383199
0.00038053
0.000377862
0.000375193
0.000372529
0.000369858
0.000367208
0.000364526
0.000361903
0.000359176
0.000356401
0.000353857
0.000350496
0.000347678
0.000345471
0.000342795
0.000340311
0.000337572
0.000334913
0.000332209
0.000329556
0.000326901
0.000324254
0.000321609
0.000318964
0.000316308
0.000313649
0.000310958
0.000308243
0.000305604
0.000302988
0.00030034
0.000297688
0.000295024
0.000292356
0.000289688
0.000287018
0.000284347
0.000281675
0.000279
0.000276316
0.000273629
0.000270927
0.000268242
0.000265603
0.000262952
0.000260285
0.000257616
0.000254941
0.000252267
0.000249595
0.000246924
0.000244254
0.000241586
0.000238917
0.000236249
0.000233582
0.000230914
0.000228246
0.000225579
0.00022291
0.000220242
0.000217574
0.000214905
0.000212236
0.000209567
0.000206898
0.000204229
0.00020156
0.000198891
0.000196223
0.000193553
0.000190884
0.000188207
0.000185527
0.000182839
0.000180095
0.000177478
0.000174829
0.000172069
0.000169364
0.000166748
0.000164116
0.000161551
0.000158912
0.000156456
0.000153742
0.000150752
0.000148157
0.000145405
0.000142822
0.000140017
0.000137963
0.000135552
0.000131889
0.000129229
0.000126668
0.000123987
0.000121361
0.00011869
0.000116033
0.000113363
0.000110698
0.00010802
0.000105363
0.000102656
0.000100061
9.72559e-05
9.50007e-05
9.25239e-05
8.92181e-05
8.6543e-05
8.39242e-05
8.12875e-05
7.86621e-05
7.60003e-05
7.33491e-05
7.06844e-05
6.80282e-05
6.53573e-05
6.26802e-05
6.00198e-05
5.73628e-05
5.4692e-05
5.20199e-05
4.93496e-05
4.66787e-05
4.40103e-05
4.13413e-05
3.86725e-05
3.60041e-05
3.33353e-05
3.06682e-05
2.80053e-05
2.53434e-05
2.26821e-05
2.0027e-05
1.73815e-05
1.47672e-05
1.21931e-05
9.75448e-06
7.39581e-06
5.57281e-06
4.22655e-06
0.0003454
0.000363426
0.0003658
0.00036325
0.000361993
0.000359501
0.000357463
0.000355109
0.000352848
0.000350514
0.0003482
0.00034587
0.000343545
0.000341216
0.000338889
0.000336561
0.000334233
0.000331905
0.000329578
0.00032725
0.000324927
0.000322597
0.000320287
0.000317951
0.000315688
0.000313354
0.000311204
0.000309005
0.000304779
0.00030271
0.000301649
0.000299039
0.000296878
0.000294462
0.000292137
0.000289774
0.000287461
0.000285142
0.000282831
0.000280521
0.000278214
0.000275899
0.000273587
0.000271248
0.000268876
0.000266578
0.000264297
0.000261979
0.000259663
0.000257337
0.000255009
0.000252682
0.000250353
0.000248025
0.000245697
0.000243366
0.000241028
0.000238691
0.000236334
0.000233987
0.000231689
0.000229373
0.000227043
0.000224714
0.00022238
0.000220049
0.000217718
0.000215389
0.000213061
0.000210734
0.000208408
0.000206081
0.000203755
0.000201428
0.000199102
0.000196776
0.000194449
0.000192122
0.000189795
0.000187468
0.000185141
0.000182814
0.000180486
0.000178159
0.000175832
0.000173505
0.000171179
0.000168851
0.000166526
0.000164195
0.000161869
0.000159534
0.000157163
0.000154815
0.000152372
0.000150058
0.000147785
0.00014548
0.000143178
0.000140932
0.000138504
0.000136728
0.00013454
0.00013139
0.00012911
0.000126809
0.000124543
0.000121814
0.000120124
0.000113768
0.00011541
0.00011248
0.000110555
0.000108183
0.000105913
0.000103582
0.000101267
9.8939e-05
9.66171e-05
9.42825e-05
9.19659e-05
8.9591e-05
8.73134e-05
8.46592e-05
8.27759e-05
7.76152e-05
7.80373e-05
7.53562e-05
7.33251e-05
7.09904e-05
6.87136e-05
6.63877e-05
6.40773e-05
6.17554e-05
5.94449e-05
5.71214e-05
5.47922e-05
5.24811e-05
5.01671e-05
4.78424e-05
4.5518e-05
4.31974e-05
4.0877e-05
3.85601e-05
3.62442e-05
3.39297e-05
3.16177e-05
2.9307e-05
2.7e-05
2.47008e-05
2.2407e-05
2.01186e-05
1.78401e-05
1.55717e-05
1.33234e-05
1.10821e-05
8.88623e-06
6.70765e-06
5.17401e-06
5.95553e-06
0.000272381
0.000304536
0.000310323
0.000308671
0.000306524
0.00030382
0.000301697
0.000299524
0.000297527
0.000295522
0.000293555
0.000291585
0.000289624
0.00028766
0.000285699
0.000283737
0.000281775
0.000279813
0.000277852
0.000275889
0.000273931
0.000271966
0.000270022
0.000268047
0.000266211
0.000264149
0.000263221
0.000259746
0.000268006
0.000255729
0.000255322
0.000252298
0.000250417
0.000248298
0.000246318
0.000244311
0.000242364
0.000240409
0.000238458
0.00023651
0.000234567
0.000232618
0.000230683
0.000228713
0.000226692
0.000224771
0.000222861
0.000220898
0.000218939
0.000216974
0.00021501
0.000213048
0.000211086
0.000209125
0.000207165
0.000205206
0.000203239
0.000201276
0.000199281
0.000197294
0.00019537
0.000193418
0.000191447
0.000189482
0.000187512
0.000185547
0.000183584
0.000181622
0.000179661
0.0001777
0.00017574
0.000173779
0.000171819
0.000169859
0.000167899
0.000165939
0.000163979
0.000162018
0.000160058
0.000158097
0.000156136
0.000154176
0.000152215
0.000150255
0.000148295
0.000146334
0.000144375
0.000142415
0.00014046
0.000138499
0.000136556
0.000134589
0.0001326
0.000130643
0.000128456
0.00012644
0.00012467
0.000122723
0.000120762
0.000118831
0.000116403
0.000115144
0.000108685
0.000111175
0.000108545
0.000107029
0.000105036
0.000103036
0.000101048
9.97999e-05
9.76989e-05
9.52556e-05
9.3383e-05
9.136e-05
8.94221e-05
8.74553e-05
8.55037e-05
8.35441e-05
8.15907e-05
7.96284e-05
7.76805e-05
7.56982e-05
7.37613e-05
7.17066e-05
6.97365e-05
6.81562e-05
6.6084e-05
6.39484e-05
6.20593e-05
6.00768e-05
5.81475e-05
5.61804e-05
5.4236e-05
5.22838e-05
5.03473e-05
4.84042e-05
4.6456e-05
4.45148e-05
4.25744e-05
4.0628e-05
3.86806e-05
3.67424e-05
3.4805e-05
3.28735e-05
3.09457e-05
2.90216e-05
2.71037e-05
2.51901e-05
2.32843e-05
2.1394e-05
1.95164e-05
1.76527e-05
1.58083e-05
1.3983e-05
1.21845e-05
1.04021e-05
8.69225e-06
7.1581e-06
6.52133e-06
7.38015e-06
0.000212072
0.000246332
0.000255278
0.000254682
0.000252503
0.0002499
0.000247836
0.000245884
0.000244156
0.00024247
0.000240839
0.000239216
0.000237605
0.000235994
0.000234385
0.000232777
0.000231168
0.000229559
0.000227951
0.000226341
0.000224734
0.00022312
0.00022152
0.000219888
0.000218329
0.000216558
0.000215185
0.00021233
0.000210495
0.000210656
0.000208896
0.000207096
0.000205451
0.000203752
0.000202107
0.000200451
0.000198861
0.000197261
0.000195658
0.00019406
0.000192469
0.000190876
0.000189309
0.000187696
0.000186008
0.000184447
0.000182903
0.000181281
0.000179667
0.000178051
0.000176436
0.000174828
0.00017322
0.000171615
0.000170011
0.000168411
0.000166804
0.000165203
0.000163554
0.000161907
0.000160352
0.000158757
0.000157129
0.000155515
0.000153897
0.000152286
0.000150677
0.00014907
0.000147463
0.000145857
0.000144251
0.000142645
0.000141039
0.000139432
0.000137826
0.00013622
0.000134614
0.000133008
0.000131402
0.000129795
0.000128189
0.000126583
0.000124977
0.000123371
0.000121765
0.00012016
0.000118556
0.00011695
0.000115353
0.000113749
0.000112178
0.000110586
0.000109059
0.00010756
0.000105038
0.000103494
0.000102534
0.000100817
9.92599e-05
9.76243e-05
9.59335e-05
9.4327e-05
9.34194e-05
9.16534e-05
8.95626e-05
8.80453e-05
8.63945e-05
8.48285e-05
8.32041e-05
8.18017e-05
8.02037e-05
7.84658e-05
7.68353e-05
7.51824e-05
7.35854e-05
7.19743e-05
7.03769e-05
6.87749e-05
6.71793e-05
6.55778e-05
6.39901e-05
6.23794e-05
6.08133e-05
5.91944e-05
5.76511e-05
5.59203e-05
5.42231e-05
5.29371e-05
5.13394e-05
4.96563e-05
4.80746e-05
4.6459e-05
4.4873e-05
4.32824e-05
4.17143e-05
4.01311e-05
3.85564e-05
3.70029e-05
3.54222e-05
3.38463e-05
3.22695e-05
3.07096e-05
2.91522e-05
2.7604e-05
2.60631e-05
2.45296e-05
2.30071e-05
2.14934e-05
1.99933e-05
1.85186e-05
1.70662e-05
1.56379e-05
1.42424e-05
1.28816e-05
1.15676e-05
1.03035e-05
9.17401e-06
8.29066e-06
8.12917e-06
8.27745e-06
0.000158507
0.000188725
0.000198653
0.00019882
0.000196973
0.000194688
0.000192853
0.000191205
0.000189789
0.000188445
0.000187163
0.000185897
0.000184643
0.000183393
0.000182144
0.000180895
0.000179647
0.000178398
0.00017715
0.0001759
0.000174651
0.000173395
0.00017215
0.000170873
0.000169645
0.00016827
0.000167007
0.000165396
0.000164246
0.000163399
0.000162155
0.000160961
0.000159706
0.000158401
0.000157106
0.000155801
0.00015458
0.000153343
0.000152094
0.000150854
0.000149621
0.000148389
0.000147205
0.000145945
0.00014459
0.00014342
0.000142247
0.00014097
0.000139702
0.000138443
0.000137184
0.000135936
0.00013469
0.000133446
0.000132208
0.000130972
0.000129734
0.000128504
0.000127206
0.00012591
0.00012473
0.000123497
0.000122218
0.000120961
0.000119702
0.000118453
0.000117206
0.000115961
0.000114716
0.000113471
0.000112227
0.000110982
0.000109737
0.000108492
0.000107248
0.000106003
0.000104758
0.000103514
0.000102269
0.000101024
9.978e-05
9.85356e-05
9.72915e-05
9.60475e-05
9.4804e-05
9.35602e-05
9.23186e-05
9.10754e-05
8.98428e-05
8.85982e-05
8.74213e-05
8.61322e-05
8.53807e-05
8.33954e-05
8.73893e-05
8.08963e-05
8.03969e-05
7.86663e-05
7.74492e-05
7.61504e-05
7.49326e-05
7.3698e-05
7.26696e-05
7.13742e-05
7.00035e-05
6.87384e-05
6.7458e-05
6.62483e-05
6.5003e-05
6.38589e-05
6.26176e-05
6.13397e-05
6.00739e-05
5.88001e-05
5.75578e-05
5.63124e-05
5.50783e-05
5.38433e-05
5.26148e-05
5.13836e-05
5.01661e-05
4.89348e-05
4.77543e-05
4.65162e-05
4.55787e-05
4.40074e-05
4.53538e-05
4.15506e-05
4.07111e-05
3.91791e-05
3.79805e-05
3.67194e-05
3.55042e-05
3.42849e-05
3.30895e-05
3.1896e-05
3.07438e-05
2.9554e-05
2.83341e-05
2.71563e-05
2.59634e-05
2.47993e-05
2.36385e-05
2.24911e-05
2.1355e-05
2.02304e-05
1.91225e-05
1.80277e-05
1.6951e-05
1.59094e-05
1.4899e-05
1.39197e-05
1.29833e-05
1.2094e-05
1.12684e-05
1.05163e-05
9.91608e-06
9.49842e-06
9.46184e-06
8.78386e-06
0.000111124
0.000133421
0.000142335
0.000142884
0.000141537
0.000139757
0.000138301
0.000137038
0.000135976
0.000134991
0.000134064
0.000133155
0.000132258
0.000131365
0.000130473
0.000129582
0.000128691
0.000127799
0.000126907
0.000126014
0.000125121
0.00012422
0.000123326
0.000122404
0.000121508
0.000120518
0.000119607
0.000118619
0.000117737
0.00011701
0.00011618
0.000115383
0.000114479
0.000113566
0.000112616
0.000111658
0.000110803
0.000109927
0.000109028
0.000108141
0.000107259
0.000106385
0.000105578
0.000104696
0.000103698
0.000102873
0.00010206
0.000101133
0.000100205
9.93029e-05
9.83984e-05
9.75091e-05
9.66206e-05
9.57365e-05
9.48589e-05
9.39863e-05
9.31154e-05
9.22627e-05
9.13147e-05
9.03475e-05
8.95435e-05
8.86803e-05
8.77416e-05
8.68398e-05
8.59388e-05
8.50479e-05
8.41615e-05
8.32756e-05
8.23908e-05
8.15052e-05
8.06199e-05
7.97341e-05
7.88484e-05
7.79627e-05
7.7077e-05
7.61916e-05
7.53063e-05
7.44211e-05
7.35361e-05
7.26512e-05
7.17665e-05
7.0882e-05
6.99978e-05
6.91138e-05
6.82303e-05
6.73467e-05
6.6465e-05
6.55812e-05
6.47054e-05
6.38139e-05
6.29596e-05
6.19851e-05
6.12105e-05
5.96461e-05
5.87543e-05
5.88302e-05
5.77763e-05
5.68384e-05
5.59279e-05
5.50223e-05
5.41687e-05
5.33032e-05
5.25041e-05
5.15954e-05
5.06869e-05
4.97836e-05
4.88814e-05
4.80383e-05
4.71215e-05
4.62409e-05
4.54405e-05
4.45822e-05
4.36661e-05
4.27699e-05
4.18874e-05
4.10095e-05
4.01408e-05
3.92736e-05
3.84133e-05
3.75524e-05
3.67034e-05
3.58472e-05
3.50174e-05
3.41711e-05
3.33512e-05
3.24251e-05
3.13478e-05
3.06654e-05
2.99746e-05
2.90663e-05
2.82351e-05
2.73753e-05
2.65359e-05
2.57008e-05
2.48782e-05
2.40382e-05
2.3283e-05
2.25753e-05
2.16846e-05
2.0905e-05
2.01062e-05
1.93445e-05
1.85878e-05
1.78463e-05
1.71197e-05
1.64071e-05
1.57155e-05
1.50385e-05
1.43791e-05
1.37567e-05
1.31693e-05
1.26103e-05
1.20925e-05
1.16208e-05
1.12135e-05
1.08778e-05
1.06673e-05
1.05163e-05
1.04545e-05
9.07617e-06
6.7806e-05
7.93659e-05
8.59173e-05
8.65485e-05
8.56872e-05
8.45001e-05
8.3516e-05
8.26996e-05
8.20281e-05
8.14245e-05
8.08631e-05
8.03181e-05
7.97822e-05
7.92493e-05
7.8718e-05
7.8187e-05
7.76562e-05
7.71248e-05
7.65934e-05
7.60598e-05
7.55262e-05
7.49856e-05
7.44479e-05
7.38884e-05
7.33425e-05
7.27451e-05
7.21683e-05
7.16762e-05
7.13017e-05
7.07012e-05
7.01707e-05
6.97651e-05
6.92387e-05
6.8715e-05
6.81169e-05
6.74967e-05
6.70121e-05
6.65067e-05
6.59553e-05
6.54246e-05
6.48933e-05
6.43731e-05
6.39575e-05
6.34133e-05
6.27825e-05
6.24013e-05
6.19116e-05
6.13295e-05
6.07354e-05
6.01983e-05
5.96515e-05
5.9126e-05
5.85994e-05
5.80774e-05
5.75636e-05
5.70544e-05
5.6556e-05
5.60839e-05
5.55049e-05
5.49084e-05
5.44484e-05
5.39441e-05
5.33555e-05
5.28111e-05
5.22757e-05
5.17479e-05
5.12271e-05
5.07052e-05
5.01848e-05
4.96633e-05
4.91419e-05
4.86201e-05
4.80985e-05
4.7577e-05
4.70557e-05
4.65348e-05
4.60142e-05
4.54938e-05
4.49738e-05
4.4454e-05
4.39347e-05
4.34157e-05
4.28971e-05
4.23789e-05
4.18613e-05
4.13437e-05
4.08279e-05
4.03097e-05
3.97979e-05
3.92702e-05
3.87675e-05
3.81789e-05
3.76669e-05
3.69495e-05
3.66363e-05
3.62385e-05
3.56998e-05
3.52299e-05
3.47127e-05
3.41947e-05
3.37253e-05
3.31868e-05
3.26651e-05
3.22062e-05
3.17245e-05
3.11735e-05
3.06558e-05
3.01635e-05
2.96305e-05
2.91248e-05
2.86792e-05
2.8203e-05
2.76738e-05
2.71639e-05
2.66566e-05
2.61581e-05
2.56664e-05
2.51785e-05
2.46975e-05
2.42175e-05
2.37481e-05
2.32727e-05
2.28143e-05
2.23342e-05
2.18276e-05
2.13432e-05
2.07716e-05
2.04637e-05
2.00145e-05
1.95866e-05
1.91381e-05
1.86836e-05
1.82367e-05
1.77841e-05
1.73435e-05
1.67563e-05
1.67919e-05
1.64621e-05
1.57573e-05
1.53988e-05
1.49891e-05
1.46271e-05
1.42712e-05
1.39275e-05
1.35981e-05
1.32794e-05
1.29801e-05
1.2688e-05
1.24032e-05
1.21463e-05
1.19175e-05
1.17013e-05
1.1512e-05
1.13555e-05
1.12518e-05
1.12009e-05
1.12396e-05
1.12298e-05
1.11008e-05
9.22179e-06
3.09627e-05
2.63788e-05
3.1103e-05
3.18589e-05
3.13238e-05
3.06373e-05
3.00601e-05
2.96777e-05
2.93891e-05
2.91697e-05
2.89778e-05
2.88026e-05
2.86331e-05
2.84669e-05
2.83018e-05
2.81371e-05
2.79727e-05
2.78078e-05
2.76429e-05
2.7476e-05
2.73092e-05
2.7136e-05
2.69657e-05
2.67775e-05
2.66057e-05
2.64022e-05
2.62485e-05
2.61803e-05
2.60628e-05
2.57837e-05
2.56848e-05
2.56295e-05
2.54792e-05
2.536e-05
2.51349e-05
2.48502e-05
2.47054e-05
2.45818e-05
2.43865e-05
2.4209e-05
2.40315e-05
2.38355e-05
2.37858e-05
2.36735e-05
2.35627e-05
2.35023e-05
2.32645e-05
2.31308e-05
2.28538e-05
2.26992e-05
2.25155e-05
2.2362e-05
2.22044e-05
2.20517e-05
2.19044e-05
2.17659e-05
2.16362e-05
2.15908e-05
2.1405e-05
2.11701e-05
2.10356e-05
2.09484e-05
2.07191e-05
2.05314e-05
2.0374e-05
2.02155e-05
2.00704e-05
1.99223e-05
1.97771e-05
1.96306e-05
1.94848e-05
1.93388e-05
1.91932e-05
1.90481e-05
1.89036e-05
1.87597e-05
1.86165e-05
1.84737e-05
1.83317e-05
1.81902e-05
1.80493e-05
1.7909e-05
1.77692e-05
1.76299e-05
1.74913e-05
1.73528e-05
1.7216e-05
1.70765e-05
1.69412e-05
1.679e-05
1.66573e-05
1.64556e-05
1.63552e-05
1.61782e-05
1.61235e-05
1.60062e-05
1.5908e-05
1.58419e-05
1.56852e-05
1.55681e-05
1.54515e-05
1.52893e-05
1.51727e-05
1.50951e-05
1.49891e-05
1.48259e-05
1.47074e-05
1.45876e-05
1.44387e-05
1.43335e-05
1.42836e-05
1.41809e-05
1.40362e-05
1.39168e-05
1.37931e-05
1.3682e-05
1.35738e-05
1.34702e-05
1.33709e-05
1.32716e-05
1.31795e-05
1.30788e-05
1.29894e-05
1.2875e-05
1.27635e-05
1.26925e-05
1.26101e-05
1.25806e-05
1.24716e-05
1.24275e-05
1.23251e-05
1.22528e-05
1.21708e-05
1.2124e-05
1.20136e-05
1.20199e-05
1.08701e-05
1.18718e-05
1.17508e-05
1.16834e-05
1.16444e-05
1.15928e-05
1.15488e-05
1.15018e-05
1.14609e-05
1.14186e-05
1.13879e-05
1.13536e-05
1.13125e-05
1.12748e-05
1.12598e-05
1.12412e-05
1.12317e-05
1.12429e-05
1.12954e-05
1.1388e-05
1.15467e-05
1.1593e-05
1.14185e-05
9.28366e-06
3.0967e-05
2.63864e-05
3.11109e-05
3.18671e-05
3.13322e-05
3.06458e-05
3.00687e-05
2.96862e-05
2.93975e-05
2.91781e-05
2.89862e-05
2.88108e-05
2.86413e-05
2.8475e-05
2.83099e-05
2.81454e-05
2.79814e-05
2.78181e-05
2.76556e-05
2.74948e-05
2.73357e-05
2.71806e-05
2.70292e-05
2.68839e-05
2.675e-05
2.66055e-05
2.64969e-05
2.62639e-05
2.59684e-05
2.58622e-05
2.5733e-05
2.55078e-05
2.53152e-05
2.51551e-05
2.50868e-05
2.49975e-05
2.47025e-05
2.45316e-05
2.4427e-05
2.42559e-05
2.41431e-05
2.39172e-05
2.36919e-05
2.34851e-05
2.28474e-05
2.30711e-05
2.30399e-05
2.29936e-05
2.28845e-05
2.27018e-05
2.25469e-05
2.23794e-05
2.22175e-05
2.20595e-05
2.18793e-05
2.17255e-05
2.14687e-05
2.13413e-05
2.11144e-05
2.1053e-05
2.09433e-05
2.08372e-05
2.07748e-05
2.05868e-05
2.04249e-05
2.02583e-05
2.00981e-05
1.9943e-05
1.97905e-05
1.96408e-05
1.94924e-05
1.93453e-05
1.9199e-05
1.90535e-05
1.89088e-05
1.87648e-05
1.86214e-05
1.84787e-05
1.83366e-05
1.81952e-05
1.80542e-05
1.79138e-05
1.77738e-05
1.76344e-05
1.74955e-05
1.73573e-05
1.72195e-05
1.70833e-05
1.69478e-05
1.68154e-05
1.66915e-05
1.65665e-05
1.65096e-05
1.63582e-05
1.61867e-05
1.60549e-05
1.59749e-05
1.58082e-05
1.56505e-05
1.55228e-05
1.53718e-05
1.5231e-05
1.51669e-05
1.50503e-05
1.48993e-05
1.47609e-05
1.46528e-05
1.45274e-05
1.44149e-05
1.43578e-05
1.42603e-05
1.41179e-05
1.39928e-05
1.38814e-05
1.37705e-05
1.36681e-05
1.35645e-05
1.34637e-05
1.33626e-05
1.32609e-05
1.31619e-05
1.30575e-05
1.29647e-05
1.28585e-05
1.27829e-05
1.2753e-05
1.26469e-05
1.25723e-05
1.24786e-05
1.24176e-05
1.23166e-05
1.22512e-05
1.21774e-05
1.21523e-05
1.20956e-05
1.21779e-05
1.20398e-05
1.16292e-05
1.17943e-05
1.16576e-05
1.16483e-05
1.15917e-05
1.15489e-05
1.15001e-05
1.14578e-05
1.14119e-05
1.1382e-05
1.13449e-05
1.13178e-05
1.1278e-05
1.12612e-05
1.12433e-05
1.12319e-05
1.12417e-05
1.12943e-05
1.13802e-05
1.15609e-05
1.15981e-05
1.14194e-05
9.28386e-06
6.7812e-05
7.93737e-05
8.59258e-05
8.65574e-05
8.56963e-05
8.45093e-05
8.35252e-05
8.27088e-05
8.20372e-05
8.14335e-05
8.08721e-05
8.0327e-05
7.9791e-05
7.9258e-05
7.87267e-05
7.81959e-05
7.76655e-05
7.71357e-05
7.66065e-05
7.6079e-05
7.55526e-05
7.503e-05
7.45096e-05
7.39945e-05
7.3483e-05
7.2961e-05
7.24466e-05
7.18412e-05
7.12262e-05
7.07592e-05
7.02221e-05
6.96299e-05
6.90469e-05
6.84817e-05
6.80428e-05
6.76127e-05
6.69897e-05
6.64484e-05
6.6002e-05
6.54746e-05
6.50259e-05
6.44765e-05
6.41127e-05
6.35417e-05
6.1804e-05
6.16009e-05
6.19196e-05
6.12174e-05
6.07946e-05
6.02084e-05
5.96875e-05
5.91459e-05
5.86151e-05
5.80906e-05
5.75456e-05
5.70383e-05
5.64032e-05
5.58683e-05
5.50437e-05
5.47453e-05
5.44356e-05
5.38831e-05
5.34182e-05
5.28899e-05
5.23314e-05
5.17967e-05
5.12572e-05
5.07282e-05
5.01996e-05
4.96748e-05
4.91506e-05
4.86277e-05
4.81053e-05
4.75835e-05
4.7062e-05
4.6541e-05
4.60202e-05
4.54999e-05
4.49798e-05
4.44601e-05
4.39408e-05
4.34217e-05
4.29029e-05
4.23846e-05
4.18665e-05
4.13492e-05
4.08321e-05
4.03173e-05
3.98031e-05
3.92951e-05
3.87914e-05
3.82932e-05
3.78181e-05
3.72733e-05
3.67112e-05
3.62344e-05
3.57421e-05
3.51922e-05
3.46624e-05
3.41439e-05
3.36157e-05
3.31065e-05
3.26481e-05
3.21335e-05
3.15941e-05
3.10847e-05
3.05863e-05
3.00835e-05
2.95977e-05
2.91394e-05
2.86327e-05
2.81096e-05
2.76097e-05
2.71144e-05
2.66247e-05
2.6139e-05
2.56534e-05
2.51695e-05
2.46854e-05
2.42019e-05
2.37206e-05
2.32391e-05
2.27693e-05
2.22965e-05
2.18579e-05
2.14376e-05
2.09334e-05
2.04632e-05
2.00273e-05
1.95776e-05
1.91181e-05
1.868e-05
1.82332e-05
1.78196e-05
1.73252e-05
1.70115e-05
1.65372e-05
1.61018e-05
1.56948e-05
1.53398e-05
1.49851e-05
1.4623e-05
1.42705e-05
1.39232e-05
1.35908e-05
1.32609e-05
1.29632e-05
1.26665e-05
1.24078e-05
1.2149e-05
1.19182e-05
1.17086e-05
1.15118e-05
1.13503e-05
1.12429e-05
1.11691e-05
1.12214e-05
1.12473e-05
1.10969e-05
9.22358e-06
0.00011113
0.000133429
0.000142344
0.000142893
0.000141546
0.000139766
0.00013831
0.000137047
0.000135985
0.000135001
0.000134073
0.000133164
0.000132267
0.000131373
0.000130482
0.000129591
0.0001287
0.000127809
0.00012692
0.000126031
0.000125143
0.000124258
0.000123375
0.000122494
0.000121615
0.000120724
0.000119835
0.00011888
0.00011792
0.000117083
0.000116177
0.000115234
0.000114263
0.000113299
0.000112444
0.000111761
0.000110808
0.000109856
0.000109079
0.00010819
0.000107435
0.000106465
0.000106499
0.000104254
0.000112372
0.000102513
0.00010297
0.000101148
0.000100343
9.93266e-05
9.84376e-05
9.75288e-05
9.66367e-05
9.57539e-05
9.48516e-05
9.40067e-05
9.29832e-05
9.22604e-05
9.03645e-05
8.94132e-05
8.99352e-05
8.88404e-05
8.78504e-05
8.69356e-05
8.59903e-05
8.50923e-05
8.41873e-05
8.32958e-05
8.2404e-05
8.15159e-05
8.06282e-05
7.97416e-05
7.88553e-05
7.79693e-05
7.70835e-05
7.6198e-05
7.53126e-05
7.44274e-05
7.35424e-05
7.26575e-05
7.17727e-05
7.08881e-05
7.00038e-05
6.91197e-05
6.82357e-05
6.73523e-05
6.6469e-05
6.55878e-05
6.47074e-05
6.38319e-05
6.29601e-05
6.20892e-05
6.12324e-05
6.03133e-05
5.9378e-05
5.85487e-05
5.76863e-05
5.67731e-05
5.58791e-05
5.49891e-05
5.40971e-05
5.32226e-05
5.23806e-05
5.14897e-05
5.05856e-05
4.97057e-05
4.88311e-05
4.79577e-05
4.70956e-05
4.62501e-05
4.53677e-05
4.44747e-05
4.35994e-05
4.27262e-05
4.18592e-05
4.09944e-05
4.01303e-05
3.92671e-05
3.84034e-05
3.75402e-05
3.66787e-05
3.58181e-05
3.4967e-05
3.41153e-05
3.3287e-05
3.24586e-05
3.15687e-05
3.07213e-05
2.98957e-05
2.90486e-05
2.82021e-05
2.73661e-05
2.65082e-05
2.56907e-05
2.46649e-05
2.40957e-05
2.18886e-05
2.24958e-05
2.14554e-05
2.08648e-05
2.00844e-05
1.93399e-05
1.85859e-05
1.78421e-05
1.71137e-05
1.63878e-05
1.56987e-05
1.49866e-05
1.44059e-05
1.37773e-05
1.31761e-05
1.262e-05
1.20946e-05
1.16193e-05
1.12095e-05
1.08627e-05
1.07975e-05
1.05085e-05
1.04454e-05
9.07404e-06
0.000158514
0.000188733
0.000198662
0.000198829
0.000196982
0.000194697
0.000192862
0.000191214
0.000189798
0.000188454
0.000187172
0.000185906
0.000184652
0.000183401
0.000182153
0.000180904
0.000179656
0.000178408
0.000177161
0.000175914
0.000174668
0.000173423
0.000172179
0.000170936
0.000169693
0.000168438
0.000167183
0.000165884
0.000164587
0.000163379
0.000162108
0.000160829
0.000159468
0.000158174
0.000156827
0.00015562
0.000154564
0.000153319
0.000152152
0.000150891
0.000149694
0.000148325
0.000147255
0.000144995
0.000143549
0.000143738
0.000142427
0.000141022
0.000139777
0.000138464
0.000137214
0.000135953
0.000134705
0.000133471
0.000132221
0.000131077
0.000129759
0.000129282
0.000126883
0.000133659
0.000124365
0.000124283
0.00012227
0.000121093
0.000119739
0.000118491
0.000117225
0.000115977
0.000114727
0.000113481
0.000112235
0.000110989
0.000109744
0.000108499
0.000107254
0.000106009
0.000104765
0.00010352
0.000102275
0.000101031
9.97862e-05
9.85418e-05
9.72976e-05
9.60535e-05
9.48094e-05
9.35659e-05
9.23224e-05
9.10805e-05
8.98394e-05
8.86013e-05
8.73658e-05
8.61281e-05
8.48975e-05
8.36215e-05
8.2345e-05
8.11441e-05
7.99112e-05
7.86478e-05
7.73956e-05
7.61447e-05
7.48953e-05
7.36574e-05
7.24415e-05
7.11904e-05
6.99293e-05
6.86851e-05
6.74444e-05
6.6207e-05
6.49772e-05
6.37574e-05
6.25097e-05
6.12558e-05
6.00137e-05
5.8773e-05
5.75379e-05
5.63046e-05
5.50724e-05
5.38407e-05
5.26088e-05
5.13774e-05
5.01476e-05
4.89187e-05
4.76972e-05
4.64752e-05
4.52677e-05
4.40581e-05
4.28014e-05
4.1577e-05
4.03723e-05
3.91486e-05
3.79278e-05
3.67118e-05
3.54843e-05
3.4286e-05
3.30261e-05
3.199e-05
3.08892e-05
2.94774e-05
2.82428e-05
2.7123e-05
2.59461e-05
2.47936e-05
2.36366e-05
2.24878e-05
2.1353e-05
2.021e-05
1.91163e-05
1.78928e-05
1.68499e-05
1.5993e-05
1.49159e-05
1.39365e-05
1.29876e-05
1.20976e-05
1.12662e-05
1.05308e-05
9.89358e-06
9.46901e-06
9.45426e-06
8.77896e-06
0.00021208
0.00024634
0.000255287
0.000254691
0.000252512
0.000249909
0.000247845
0.000245893
0.000244165
0.000242479
0.000240848
0.000239225
0.000237614
0.000236003
0.000234394
0.000232786
0.000231177
0.000229569
0.000227961
0.000226353
0.000224745
0.000223138
0.000221531
0.000219922
0.000218313
0.000216693
0.000215072
0.000213425
0.000211779
0.000210205
0.000208575
0.000206967
0.000205221
0.000203559
0.000201586
0.00020017
0.00019895
0.000197267
0.000195708
0.000194101
0.000192487
0.000190787
0.000189126
0.000187202
0.000185638
0.000184445
0.000182838
0.000181291
0.000179705
0.000178062
0.000176455
0.000174839
0.000173232
0.000171634
0.000170029
0.000168475
0.000166884
0.000165402
0.000163936
0.000160944
0.000159448
0.000158825
0.000157045
0.000155559
0.000153902
0.000152306
0.000150686
0.000149081
0.000147471
0.000145865
0.000144258
0.000142652
0.000141045
0.000139439
0.000137833
0.000136227
0.00013462
0.000133014
0.000131408
0.000129802
0.000128195
0.000126589
0.000124983
0.000123377
0.000121771
0.000120165
0.00011856
0.000116955
0.000115351
0.000113749
0.000112148
0.000110543
0.000108942
0.00010731
0.000105678
0.000104106
0.000102509
0.000100891
9.92789e-05
9.76671e-05
9.60576e-05
9.44559e-05
9.28682e-05
9.12544e-05
8.96344e-05
8.80255e-05
8.6419e-05
8.48163e-05
8.3218e-05
8.16257e-05
8.00139e-05
7.83973e-05
7.67882e-05
7.51804e-05
7.35774e-05
7.19761e-05
7.03762e-05
6.8777e-05
6.71781e-05
6.55798e-05
6.3983e-05
6.23871e-05
6.07964e-05
5.92048e-05
5.76214e-05
5.60335e-05
5.44136e-05
5.28196e-05
5.12373e-05
4.96413e-05
4.80484e-05
4.64584e-05
4.48613e-05
4.32884e-05
4.17068e-05
4.01937e-05
3.86468e-05
3.69666e-05
3.53881e-05
3.38214e-05
3.22539e-05
3.07032e-05
2.91503e-05
2.76036e-05
2.60709e-05
2.45307e-05
2.30753e-05
2.14535e-05
2.08055e-05
1.84826e-05
1.71306e-05
1.56396e-05
1.42494e-05
1.28821e-05
1.1566e-05
1.03025e-05
9.1858e-06
8.28157e-06
8.12705e-06
8.27482e-06
0.000272389
0.000304544
0.000310331
0.00030868
0.000306533
0.000303829
0.000301706
0.000299533
0.000297536
0.000295531
0.000293564
0.000291595
0.000289633
0.00028767
0.000285708
0.000283746
0.000281784
0.000279822
0.00027786
0.000275899
0.000273936
0.000271973
0.000270009
0.000268043
0.000266074
0.000264097
0.000262118
0.000260127
0.000258138
0.000256208
0.000254229
0.000252309
0.000250175
0.000248415
0.000245204
0.000242989
0.000242859
0.000240703
0.000238538
0.00023656
0.000234536
0.000232508
0.000230496
0.000228428
0.000226457
0.00022469
0.000222773
0.000220887
0.000218939
0.000216972
0.000215015
0.000213052
0.000211092
0.000209139
0.000207176
0.000205243
0.00020327
0.000201264
0.000199305
0.000196989
0.000194952
0.000193295
0.000191347
0.000189479
0.000187494
0.000185551
0.000183584
0.000181628
0.000179666
0.000177707
0.000175746
0.000173786
0.000171826
0.000169866
0.000167906
0.000165945
0.000163985
0.000162025
0.000160064
0.000158103
0.000156143
0.000154182
0.000152221
0.000150261
0.0001483
0.00014634
0.00014438
0.000142421
0.000140461
0.000138502
0.000136543
0.000134579
0.000132618
0.000130636
0.000128658
0.000126722
0.000124768
0.000122801
0.000120838
0.000118873
0.000116911
0.000114953
0.000113004
0.000111036
0.000109064
0.000107098
0.000105134
0.000103174
0.000101217
9.92626e-05
9.72943e-05
9.53223e-05
9.33547e-05
9.13884e-05
8.94264e-05
8.74662e-05
8.55078e-05
8.35504e-05
8.15937e-05
7.96379e-05
7.76836e-05
7.57299e-05
7.37799e-05
7.18285e-05
6.98806e-05
6.79286e-05
6.59547e-05
6.39984e-05
6.20506e-05
6.00943e-05
5.81406e-05
5.61889e-05
5.42333e-05
5.22946e-05
5.03482e-05
4.84347e-05
4.65099e-05
4.45086e-05
4.25525e-05
4.06081e-05
3.86676e-05
3.67355e-05
3.48029e-05
3.28739e-05
3.09512e-05
2.90327e-05
2.71253e-05
2.52462e-05
2.31747e-05
2.12802e-05
1.95209e-05
1.76366e-05
1.58085e-05
1.39808e-05
1.21821e-05
1.03964e-05
8.69057e-06
7.15631e-06
6.52017e-06
7.37861e-06
0.000345408
0.000363435
0.000365809
0.000363259
0.000362002
0.00035951
0.000357472
0.000355118
0.000352857
0.000350524
0.000348209
0.000345879
0.000343554
0.000341226
0.000338898
0.00033657
0.000334242
0.000331915
0.000329587
0.000327258
0.000324929
0.000322599
0.000320266
0.000317929
0.000315589
0.000313241
0.000310891
0.000308537
0.000306189
0.000303899
0.000301569
0.000299373
0.00029694
0.000295533
0.000291791
0.000298969
0.000286989
0.000286133
0.00028281
0.000280611
0.000278138
0.000275779
0.000273373
0.000271071
0.000268874
0.000266526
0.000264159
0.000261933
0.000259629
0.000257318
0.000255003
0.000252679
0.000250354
0.000248031
0.000245698
0.000243372
0.000241032
0.000238639
0.000236279
0.000233774
0.000231462
0.000229226
0.000226912
0.000224664
0.000222337
0.000220036
0.00021771
0.000215391
0.000213065
0.00021074
0.000208414
0.000206088
0.000203762
0.000201435
0.000199109
0.000196782
0.000194456
0.000192129
0.000189802
0.000187474
0.000185147
0.00018282
0.000180493
0.000178165
0.000175838
0.000173512
0.000171185
0.000168858
0.000166531
0.000164204
0.000161875
0.000159541
0.000157208
0.000154861
0.000152521
0.000150213
0.000147894
0.000145566
0.000143238
0.000140909
0.000138582
0.000136257
0.000133937
0.000131603
0.000129264
0.00012693
0.000124598
0.000122269
0.000119942
0.000117616
0.00011528
0.000112939
0.000110601
0.000108265
0.000105932
0.000103602
0.000101275
9.89483e-05
9.66232e-05
9.42993e-05
9.1977e-05
8.96553e-05
8.73361e-05
8.50149e-05
8.26943e-05
8.03684e-05
7.80276e-05
7.57001e-05
7.33787e-05
7.10524e-05
6.87283e-05
6.64064e-05
6.40827e-05
6.17703e-05
5.94585e-05
5.71453e-05
5.48059e-05
5.24761e-05
5.0161e-05
4.78276e-05
4.5507e-05
4.31903e-05
4.08743e-05
3.85595e-05
3.62478e-05
3.39341e-05
3.16177e-05
2.93138e-05
2.69779e-05
2.46563e-05
2.23938e-05
2.01035e-05
1.78372e-05
1.55673e-05
1.33199e-05
1.10794e-05
8.8897e-06
6.70694e-06
5.17323e-06
5.95508e-06
0.00042855
0.000408917
0.000415868
0.000412926
0.000413589
0.000411445
0.000409556
0.000407028
0.000404512
0.000401864
0.00039922
0.000396552
0.000393886
0.000391216
0.000388548
0.000385878
0.000383209
0.00038054
0.000377871
0.000375201
0.00037253
0.000369857
0.000367181
0.0003645
0.000361813
0.000359117
0.000356418
0.00035372
0.000351031
0.000348402
0.000345743
0.000343181
0.0003405
0.000338074
0.000335464
0.000330388
0.000328294
0.000327097
0.000324052
0.000321617
0.000318844
0.000316163
0.00031345
0.000310896
0.000308299
0.00030555
0.000302839
0.000300264
0.000297629