/*--------------------------------*- C++ -*----------------------------------*\
| =========                 |                                                 |
| \\      /  F ield         | foam-extend: Open Source CFD                    |
|  \\    /   O peration     | Version:     4.0                                |
|   \\  /    A nd           | Web:         http://www.foam-extend.org         |
|    \\/     M anipulation  |                                                 |
\*---------------------------------------------------------------------------*/
FoamFile
{
    version     2.0;
    format      ascii;
    class       volSymmTensorField;
    location    "1";
    object      epsilon;
}
// * * * * * * * * * * * * * * * * * * * * * * * * * * * * * * * * * * * * * //

dimensions      [0 0 0 0 0 0 0];

internalField   nonuniform List<symmTensor> 
2560
(
(-0.000514201 -4.49141e-05 3.64461e-19 0.000199052 -3.18388e-19 -2.2622e-32)
(-0.000484136 -4.88134e-06 -2.14888e-18 0.000204742 -9.0924e-19 -3.23026e-32)
(-0.000492669 6.79383e-07 -1.20402e-18 0.000207897 -6.56594e-19 2.33272e-32)
(-0.00048906 2.68665e-08 1.4936e-17 0.000206584 4.41175e-18 -3.91842e-31)
(-0.000489979 -2.65095e-07 -8.57151e-18 0.000206735 -4.91568e-19 -3.49277e-32)
(-0.00048746 -7.21134e-07 -1.08493e-17 0.000205627 -4.17947e-18 -1.48485e-31)
(-0.000485244 -9.10299e-07 7.66952e-18 0.00020465 9.0883e-19 -3.22881e-32)
(-0.00048225 -1.02352e-06 -8.81436e-18 0.000203378 -9.03179e-19 -3.20873e-32)
(-0.00047927 -1.06913e-06 9.95314e-18 0.000202114 8.97566e-19 -3.18879e-32)
(-0.00047613 -1.09044e-06 -1.10846e-17 0.000200788 -8.91679e-19 -3.16787e-32)
(-0.000473001 -1.09779e-06 6.95734e-18 0.000199467 -6.75682e-18 2.4005e-31)
(-0.000469834 -1.09997e-06 1.9988e-17 0.000198132 1.31983e-18 -7.03343e-32)
(-0.000466697 -1.09936e-06 1.96157e-17 0.000196807 9.90768e-18 -3.51991e-31)
(-0.000463512 -1.09966e-06 -1.34776e-17 0.000195467 3.02085e-18 1.07322e-31)
(-0.000460411 -1.09974e-06 6.27031e-18 0.000194148 -3.73126e-18 6.62805e-32)
(-0.000457158 -1.13111e-06 2.03019e-18 0.000192799 4.4342e-18 -1.37049e-45)
(-0.000453908 -1.14399e-06 -3.35556e-17 0.00019134 7.70751e-18 5.47651e-31)
(-0.000450789 -1.19679e-06 -2.38603e-17 0.000190225 -1.07836e-17 -3.83111e-31)
(-0.000446611 -1.64048e-06 -2.0918e-17 0.000188689 -8.37947e-19 -2.97698e-32)
(-0.000443556 -9.99728e-07 -9.02768e-18 0.000186904 5.08817e-18 9.03839e-32)
(-0.000440968 -1.12184e-06 -5.87487e-18 0.000185863 -1.72919e-17 2.46016e-44)
(-0.000437764 -1.05382e-06 4.13443e-17 0.000184607 -1.94417e-17 1.38142e-30)
(-0.000434878 -1.08515e-06 8.98088e-17 0.000183381 9.13211e-18 -1.13553e-30)
(-0.000431661 -1.09614e-06 4.3993e-17 0.000182035 1.75584e-17 -9.35696e-31)
(-0.000428558 -1.10069e-06 1.90318e-18 0.000180725 6.79304e-18 8.37305e-48)
(-0.000425377 -1.10351e-06 -1.88905e-18 0.000179384 -7.04586e-18 2.04325e-45)
(-0.000422224 -1.10419e-06 6.63564e-17 0.000178054 -2.35621e-17 2.09273e-30)
(-0.000419055 -1.10463e-06 1.07435e-16 0.000176718 1.02926e-17 -1.27984e-30)
(-0.000415892 -1.10474e-06 3.39231e-17 0.000175384 1.24685e-17 -4.42969e-31)
(-0.000412726 -1.1048e-06 6.4268e-17 0.000174049 1.54587e-18 -1.0984e-31)
(-0.000409562 -1.10481e-06 5.14805e-17 0.000172715 9.43238e-18 -5.02657e-31)
(-0.000406396 -1.10478e-06 3.22693e-17 0.00017138 -7.76236e-18 2.75774e-31)
(-0.000403232 -1.10469e-06 3.50329e-17 0.000170045 7.55154e-19 -2.68284e-32)
(-0.000400068 -1.10453e-06 5.39763e-17 0.000168711 1.12384e-18 -5.98902e-32)
(-0.000396905 -1.10417e-06 7.56186e-17 0.000167377 1.07235e-17 -7.61951e-31)
(-0.000393742 -1.10388e-06 6.02936e-17 0.000166044 2.00481e-17 -1.06837e-30)
(-0.000390583 -1.10321e-06 -4.33635e-18 0.000164711 -2.4258e-17 2.40136e-44)
(-0.000387422 -1.10361e-06 1.81368e-17 0.000163379 -9.57077e-18 1.70011e-31)
(-0.000384265 -1.10339e-06 6.17959e-17 0.000162047 6.16046e-18 -3.28294e-31)
(-0.000381101 -1.10818e-06 3.73038e-17 0.000160714 -2.52579e-17 8.9734e-31)
(-0.000377924 -1.11158e-06 1.47679e-16 0.000159373 -2.82954e-18 3.51839e-31)
(-0.000374739 -1.12304e-06 6.49876e-17 0.000158032 1.05271e-18 -5.60994e-32)
(-0.000371499 -1.12942e-06 1.57204e-16 0.000156665 1.90208e-17 -2.36514e-30)
(-0.000368294 -1.09905e-06 4.75367e-17 0.00015531 1.76033e-17 -6.25394e-31)
(-0.000365202 -1.08192e-06 -4.05456e-18 0.000154013 -2.87316e-17 7.97571e-44)
(-0.000362077 -1.10177e-06 1.87251e-16 0.000152691 2.71234e-18 -3.85446e-31)
(-0.000358899 -1.10921e-06 1.19167e-16 0.00015135 1.68032e-18 -1.49242e-31)
(-0.000355723 -1.11223e-06 1.71376e-16 0.00015001 1.44649e-17 -1.79863e-30)
(-0.000352534 -1.11294e-06 2.34835e-18 0.000148665 1.85145e-17 8.76318e-45)
(-0.000349353 -1.1108e-06 -3.8786e-18 0.000147324 -3.13769e-17 4.99483e-44)
(-0.000346177 -1.1094e-06 1.78524e-16 0.000145985 2.26906e-18 -2.82146e-31)
(-0.000343004 -1.10778e-06 5.18231e-17 0.000144647 6.42362e-19 -2.28212e-32)
(-0.000339836 -1.10689e-06 1.8572e-16 0.000143311 1.53904e-17 -1.91371e-30)
(-0.000336669 -1.10623e-06 8.2392e-17 0.000141975 2.09905e-17 -1.1186e-30)
(-0.000333504 -1.10593e-06 -3.70264e-18 0.000140641 -3.39039e-17 5.32196e-44)
(-0.000330339 -1.10576e-06 1.94011e-16 0.000139306 1.59234e-17 -1.97999e-30)
(-0.000327175 -1.10571e-06 -1.23659e-31 0.000137972 -9.32212e-31 -1.57993e-59)
(-0.000324012 -1.10571e-06 1.97969e-16 0.000136638 2.12378e-18 -2.64081e-31)
(-0.000320848 -1.10573e-06 -1.88277e-31 0.000135304 -1.59453e-30 -2.94811e-59)
(-0.000317684 -1.10575e-06 8.71236e-17 0.000133969 8.92417e-19 -4.75574e-32)
(-0.000314521 -1.10575e-06 2.09513e-18 0.000132635 2.2069e-17 4.18777e-44)
(-0.000311357 -1.10577e-06 -1.3827e-18 0.000131301 -1.4898e-17 9.35603e-46)
(-0.000308193 -1.10582e-06 2.73731e-18 0.000129967 3.01628e-17 2.85903e-44)
(-0.00030503 -1.10589e-06 -6.10322e-17 0.000128633 -5.71246e-19 -2.02947e-32)
(-0.000301866 -1.10594e-06 -2.68111e-18 0.000127299 -3.08853e-17 -1.95294e-44)
(-0.000298702 -1.10595e-06 6.37886e-17 0.000125965 1.61799e-17 -5.74823e-31)
(-0.000295539 -1.10595e-06 6.11972e-17 0.000124631 -2.31411e-17 8.22136e-31)
(-0.000292374 -1.10597e-06 2.56747e-16 0.000123296 1.81606e-17 -2.58078e-30)
(-0.000289213 -1.1062e-06 1.92654e-18 0.000121963 2.4214e-17 -7.27178e-44)
(-0.000286041 -1.10664e-06 -2.54055e-18 0.000120625 -3.26259e-17 4.02555e-44)
(-0.000282886 -1.10843e-06 6.59059e-17 0.000119294 5.29773e-19 -1.88213e-32)
(-0.000279683 -1.11142e-06 1.32523e-16 0.000117945 -7.27644e-18 5.17021e-31)
(-0.00027655 -1.11829e-06 1.03302e-16 0.000116617 3.44022e-17 -1.83331e-30)
(-0.000273213 -1.13773e-06 -6.78819e-17 0.000115215 -5.11659e-19 -1.81777e-32)
(-0.000270069 -1.09681e-06 3.00642e-17 0.000113831 -5.97227e-17 1.06089e-30)
(-0.00026655 -1.17041e-06 2.45003e-16 0.000112318 4.4981e-17 -5.59315e-30)
(-0.000263312 -7.81552e-07 -6.97966e-17 0.000111247 -4.94036e-19 -1.75517e-32)
(-0.000260771 -1.04555e-06 1.74883e-16 0.000110043 -1.63871e-17 1.45546e-30)
(-0.000257596 -1.07011e-06 1.71593e-18 0.000108581 2.66417e-17 3.17259e-44)
(-0.000254532 -1.07317e-06 -7.27611e-17 0.000107344 -1.83892e-17 -6.53314e-31)
(-0.000251448 -1.11278e-06 -5.58327e-19 0.000106032 -9.03135e-18 -2.27983e-46)
(-0.000248194 -1.12463e-06 1.0703e-16 0.000104662 -3.57243e-17 1.90377e-30)
(-0.000245013 -1.11105e-06 2.20221e-16 0.000103322 1.37653e-18 -1.46712e-31)
(-0.000241842 -1.10491e-06 1.13123e-16 0.000101986 3.76809e-17 -2.00804e-30)
(-0.000238687 -1.10216e-06 5.29991e-19 0.000100656 9.32149e-18 4.87401e-45)
(-0.000235535 -1.10117e-06 -5.22992e-19 9.93269e-05 -9.39168e-18 -4.6837e-46)
(-0.000232383 -1.10233e-06 1.11438e-16 9.79973e-05 -3.7191e-17 1.98193e-30)
(-0.000229227 -1.10287e-06 2.28644e-16 9.66668e-05 1.28786e-18 -1.37262e-31)
(-0.000226071 -1.10356e-06 1.17139e-16 9.53356e-05 3.90218e-17 -2.07949e-30)
(-0.000222914 -1.10337e-06 1.4849e-18 9.4004e-05 2.89894e-17 1.51311e-44)
(-0.000219757 -1.10322e-06 -7.82977e-17 9.26728e-05 -1.01402e-17 -3.60252e-31)
(-0.000216601 -1.10221e-06 1.14604e-16 9.13418e-05 -5.81511e-17 3.09891e-30)
(-0.000213449 -1.10221e-06 2.36981e-16 9.00127e-05 1.10561e-17 -1.17838e-30)
(-0.000210294 -1.10206e-06 8.07385e-17 8.86818e-05 3.01528e-17 -1.07124e-30)
(-0.000207144 -1.10331e-06 3.94561e-17 8.73541e-05 -9.78751e-18 1.73861e-31)
(-0.000203978 -1.10814e-06 1.20479e-16 8.60193e-05 5.73004e-19 -3.05357e-32)
(-0.00020081 -1.10137e-06 1.21643e-16 8.4681e-05 1.06663e-17 -5.68416e-31)
(-0.000197676 -1.09821e-06 8.12701e-17 8.33624e-05 3.70203e-19 -1.31523e-32)
(-0.000194524 -1.10483e-06 1.22602e-16 8.20319e-05 5.46442e-19 -2.91203e-32)
(-0.000191359 -1.10431e-06 4.24903e-19 8.06972e-05 1.02764e-17 -1.36667e-45)
(-0.000188204 -1.10389e-06 -5.87201e-32 7.93671e-05 -2.50439e-34 -6.32194e-63)
(-0.000185043 -1.10458e-06 8.26723e-17 7.80337e-05 -1.00413e-17 3.56739e-31)
(-0.000181884 -1.10432e-06 2.0839e-16 7.67018e-05 -9.59061e-18 8.51816e-31)
(-0.000178723 -1.10511e-06 1.25917e-16 7.53688e-05 5.02057e-19 -2.67549e-32)
(-0.000175561 -1.10533e-06 4.2572e-17 7.40354e-05 1.07124e-17 -1.9029e-31)
(-0.000172399 -1.10581e-06 3.82803e-19 7.27018e-05 1.05995e-17 1.53183e-44)
(-0.000169235 -1.10598e-06 8.40537e-17 7.13676e-05 -3.16333e-17 1.12384e-30)
(-0.000166071 -1.10617e-06 2.13945e-16 7.00332e-05 7.77527e-19 -6.9058e-32)
(-0.000162907 -1.10628e-06 8.66911e-17 6.86987e-05 2.18019e-17 -7.74559e-31)
(-0.000159742 -1.10638e-06 1.28461e-16 6.73643e-05 -3.19398e-17 1.70209e-30)
(-0.000156578 -1.10647e-06 1.30087e-16 6.603e-05 4.39848e-19 -2.34398e-32)
(-0.000153414 -1.10652e-06 1.29615e-16 6.46957e-05 -3.22357e-17 1.71786e-30)
(-0.00015025 -1.10659e-06 4.37589e-16 6.33612e-05 1.23408e-17 -2.19216e-30)
(-0.000147085 -1.10659e-06 8.94362e-17 6.20267e-05 5.51648e-17 -1.95984e-30)
(-0.00014392 -1.10661e-06 1.32222e-16 6.06922e-05 4.04292e-19 -2.15449e-32)
(-0.000140756 -1.10668e-06 8.8485e-17 5.93576e-05 2.63601e-19 -9.36495e-33)
(-0.000137591 -1.10674e-06 1.32e-16 5.80232e-05 -4.40307e-17 2.34642e-30)
(-0.000134427 -1.1069e-06 2.68306e-16 5.66889e-05 3.41889e-17 -3.6439e-30)
(-0.000131263 -1.10701e-06 9.06173e-17 5.53544e-05 4.49814e-17 -1.59806e-30)
(-0.000128098 -1.10713e-06 -5.68871e-19 5.40199e-05 -2.24446e-17 -1.47242e-44)
(-0.000124934 -1.10725e-06 9.00582e-17 5.26853e-05 2.3397e-19 -8.31225e-33)
(-0.000121769 -1.10733e-06 5.40763e-19 5.13508e-05 2.25925e-17 4.99025e-44)
(-0.000118605 -1.10741e-06 -2.02848e-32 5.00165e-05 -8.0518e-31 -4.9623e-61)
(-0.000115441 -1.10758e-06 9.03995e-17 4.86821e-05 -2.25168e-17 7.99956e-31)
(-0.000112276 -1.10771e-06 -7.47911e-19 4.73476e-05 -3.42006e-17 1.44905e-43)
(-0.000109112 -1.10783e-06 1.36924e-16 4.60134e-05 -1.11265e-17 5.92936e-31)
(-0.000105948 -1.10797e-06 1.38724e-16 4.4679e-05 5.76217e-17 -3.07069e-30)
(-0.000102784 -1.10793e-06 -4.56453e-19 4.33446e-05 -2.29914e-17 5.7755e-44)
(-9.96199e-05 -1.10787e-06 3.22207e-16 4.20103e-05 -2.23984e-17 2.78512e-30)
(-9.64558e-05 -1.10776e-06 9.30604e-17 4.06761e-05 3.48447e-17 -1.23793e-30)
(-9.32919e-05 -1.10771e-06 4.14299e-19 3.93419e-05 2.31656e-17 2.98095e-44)
(-9.01279e-05 -1.10768e-06 -6.00372e-19 3.80075e-05 -3.48298e-17 1.31846e-43)
(-8.69639e-05 -1.10771e-06 2.32288e-16 3.66732e-05 -2.28652e-17 2.03083e-30)
(-8.37996e-05 -1.10783e-06 9.36439e-17 3.53388e-05 2.34798e-17 -8.34169e-31)
(-8.06357e-05 -1.10789e-06 -4.63751e-17 3.40045e-05 2.3296e-17 4.1382e-31)
(-7.74719e-05 -1.108e-06 -9.34817e-17 3.26704e-05 1.15641e-17 4.10838e-31)
(-7.43077e-05 -1.10805e-06 -1.31997e-18 3.13359e-05 -9.38532e-17 2.3715e-43)
(-7.11437e-05 -1.10792e-06 4.6987e-16 3.00016e-05 -1.1087e-17 1.96945e-30)
(-6.79797e-05 -1.10781e-06 1.4201e-16 2.86675e-05 5.90598e-17 -3.14734e-30)
(-6.48155e-05 -1.10784e-06 1.41635e-16 2.73332e-05 1.19755e-17 -6.38182e-31)
(-6.16518e-05 -1.10786e-06 9.46144e-17 2.5999e-05 1.19276e-17 -4.23753e-31)
(-5.8488e-05 -1.10799e-06 9.46197e-17 2.46648e-05 1.09534e-19 -3.89141e-33)
(-5.53242e-05 -1.10797e-06 1.89509e-16 2.33305e-05 2.07218e-19 -1.47236e-32)
(-5.21609e-05 -1.10793e-06 9.4766e-17 2.19967e-05 -1.1765e-17 4.17976e-31)
(-4.89972e-05 -1.10801e-06 4.71744e-17 2.06624e-05 -3.55871e-17 6.32153e-31)
(-4.58334e-05 -1.10798e-06 3.32899e-16 1.93281e-05 3.0042e-19 -3.73556e-32)
(-4.26703e-05 -1.10785e-06 2.38236e-16 1.79942e-05 2.40094e-17 -2.13246e-30)
(-3.9507e-05 -1.10769e-06 1.43062e-16 1.66604e-05 1.2028e-17 -6.40977e-31)
(-3.63448e-05 -1.10716e-06 9.54866e-17 1.53268e-05 1.19963e-17 -4.26192e-31)
(-3.31834e-05 -1.10677e-06 -2.17376e-31 1.39935e-05 -4.07175e-29 5.13926e-58)
(-3.0024e-05 -1.1054e-06 -2e-19 1.26611e-05 -3.58436e-17 6.61013e-44)
(-2.68696e-05 -1.1051e-06 3.34826e-16 1.13307e-05 2.40887e-17 -2.9953e-30)
(-2.37132e-05 -1.1044e-06 1.43536e-16 1.00007e-05 6.66192e-20 -3.55008e-33)
(-2.05673e-05 -1.09229e-06 1.43523e-16 8.67264e-06 -2.38828e-17 1.27273e-30)
(-1.7468e-05 -1.07082e-06 9.59041e-17 7.36168e-06 3.59603e-17 -1.27756e-30)
(-1.44192e-05 -1.03076e-06 -5.89888e-32 6.06953e-06 3.40506e-30 8.59557e-59)
(-1.15274e-05 -9.64827e-07 -1.53576e-19 4.8327e-06 -7.1907e-17 9.5492e-43)
(-8.73707e-06 -8.35607e-07 4.79443e-16 3.63013e-06 8.06036e-20 -1.43186e-32)
(-6.51784e-06 -9.71885e-07 7.23625e-20 2.68012e-06 5.99629e-17 2.86933e-43)
(-3.3363e-06 -2.35039e-06 -2.39805e-17 2.24098e-06 6.00187e-17 1.19762e-33)
(-0.000419468 -5.69731e-05 1.86281e-18 0.00014554 1.02797e-18 0)
(-0.000431208 -9.54575e-06 -1.73234e-18 0.000180483 -5.77065e-20 0)
(-0.000431443 -8.07349e-07 2.67871e-19 0.000185387 -7.2058e-19 0)
(-0.000427553 -1.07389e-06 1.89872e-18 0.00018524 2.11951e-18 0)
(-0.000426094 -1.49423e-06 2.07944e-17 0.000184563 1.16442e-17 0)
(-0.000423161 -2.44502e-06 1.11086e-17 0.000183271 -1.3125e-20 0)
(-0.000420809 -2.85382e-06 -2.06694e-32 0.000182159 -3.50159e-32 0)
(-0.000418052 -3.12569e-06 -8.7826e-18 0.000180931 -1.60699e-18 0)
(-0.000415402 -3.23432e-06 1.14352e-33 0.000179757 2.10208e-32 0)
(-0.000412655 -3.28963e-06 1.10513e-17 0.000178559 1.58592e-18 0)
(-0.000409936 -3.3083e-06 -2.81343e-32 0.000177376 -9.45341e-32 0)
(-0.000407188 -3.31466e-06 -5.9813e-17 0.000176186 -7.04182e-18 0)
(-0.00040447 -3.31267e-06 4.53025e-32 0.000175008 1.92366e-31 0)
(-0.000401712 -3.31905e-06 1.46105e-17 0.00017382 -2.34651e-18 0)
(-0.000399047 -3.30404e-06 4.14914e-17 0.000172674 3.83413e-18 0)
(-0.000396278 -3.46717e-06 2.03212e-17 0.000171501 1.48305e-17 0)
(-0.000393711 -3.24875e-06 5.45363e-17 0.00017048 -4.86714e-18 0)
(-0.000391241 -4.28624e-06 4.13503e-17 0.000169188 1.29467e-17 0)
(-0.00038632 -2.79274e-06 -8.57803e-19 0.000166713 -5.23874e-18 0)
(-0.000383681 -2.12867e-06 4.05563e-17 0.000165988 -1.90713e-17 0)
(-0.000382466 -3.11913e-06 5.83621e-17 0.000165595 9.44209e-18 0)
(-0.000379426 -3.08761e-06 0 0.000164207 0 0)
(-0.000376931 -3.25521e-06 -2.59119e-17 0.000163111 -7.73191e-18 0)
(-0.000374115 -3.29528e-06 4.08121e-17 0.000161884 1.52362e-17 0)
(-0.00037142 -3.31326e-06 2.79438e-17 0.000160711 8.22188e-18 0)
(-0.00036866 -3.32233e-06 2.56745e-17 0.000159516 -1.97252e-17 0)
(-0.000365927 -3.32429e-06 1.4567e-17 0.000158332 7.03135e-19 0)
(-0.00036318 -3.32573e-06 -4.4389e-17 0.000157144 5.45377e-18 0)
(-0.000360439 -3.32596e-06 4.66786e-17 0.000155957 2.07777e-18 0)
(-0.000357695 -3.32616e-06 -3.28946e-17 0.00015477 -9.4145e-18 0)
(-0.000354953 -3.3261e-06 -3.30742e-17 0.000153583 -1.36409e-18 0)
(-0.00035221 -3.32592e-06 5.34069e-17 0.000152396 2.7605e-17 0)
(-0.000349467 -3.32549e-06 -3.57753e-17 0.00015121 -1.01076e-17 0)
(-0.000346725 -3.32487e-06 3.44108e-17 0.000150023 -1.66724e-17 0)
(-0.000343984 -3.32371e-06 1.69196e-17 0.000148837 -1.78158e-17 0)
(-0.000341242 -3.32271e-06 1.16733e-30 0.000147651 1.09071e-29 0)
(-0.000338504 -3.32068e-06 1.0216e-16 0.000146466 7.11847e-17 0)
(-0.000335764 -3.32156e-06 -9.9948e-17 0.000145282 -1.31609e-17 0)
(-0.000333029 -3.32064e-06 5.94133e-17 0.000144097 -1.84072e-17 0)
(-0.000330289 -3.33349e-06 7.33389e-19 0.000142917 1.03901e-17 0)
(-0.000327543 -3.34133e-06 -4.24e-17 0.000141725 -1.25877e-18 0)
(-0.000324793 -3.373e-06 -6.49365e-17 0.000140544 -1.87242e-18 0)
(-0.000321996 -3.38827e-06 -1.5604e-16 0.000139317 -2.64481e-17 0)
(-0.000319216 -3.31063e-06 -4.22146e-17 0.000138091 4.38821e-17 0)
(-0.000316525 -3.26777e-06 -4.6621e-17 0.000136964 -1.27105e-17 0)
(-0.000313805 -3.32029e-06 -7.36527e-17 0.000135787 -6.03567e-17 0)
(-0.00031104 -3.33871e-06 6.90649e-19 0.000134586 1.19231e-17 0)
(-0.000308286 -3.34579e-06 -1.19145e-16 0.000133394 3.34422e-17 0)
(-0.000305525 -3.34733e-06 5.20318e-17 0.000132195 5.05518e-17 0)
(-0.000302769 -3.3412e-06 -1.34457e-18 0.000131004 -2.51044e-17 0)
(-0.000300018 -3.33726e-06 -7.77922e-17 0.000129813 -2.72457e-17 0)
(-0.000297269 -3.33271e-06 -5.17895e-17 0.000128624 -1.14241e-18 0)
(-0.000294524 -3.33013e-06 -1.33457e-16 0.000127436 -4.23226e-17 0)
(-0.000291779 -3.32817e-06 2.59152e-18 0.000126249 5.34584e-17 0)
(-0.000289036 -3.32717e-06 -5.35511e-17 0.000125062 1.24522e-17 0)
(-0.000286294 -3.32654e-06 -8.374e-17 0.000123876 -2.91694e-17 0)
(-0.000283552 -3.32627e-06 -6.04361e-32 0.000122689 -9.96766e-31 0)
(-0.00028081 -3.32618e-06 -8.47934e-17 0.000121503 -1.61874e-18 0)
(-0.000278068 -3.32616e-06 -1.12115e-16 0.000120316 5.52144e-17 0)
(-0.000275326 -3.32618e-06 -5.80488e-17 0.00011913 -1.05809e-18 0)
(-0.000272584 -3.32615e-06 8.81962e-17 0.000117944 1.57132e-18 0)
(-0.000269842 -3.32613e-06 -5.83403e-17 0.000116757 2.87619e-17 0)
(-0.0002671 -3.32617e-06 2.895e-17 0.000115571 -2.96525e-17 0)
(-0.000264358 -3.32626e-06 1.21997e-16 0.000114384 2.03188e-18 0)
(-0.000261617 -3.32638e-06 -1.23435e-16 0.000113198 -2.0108e-18 0)
(-0.000258875 -3.32643e-06 -2.29927e-18 0.000112012 -6.24876e-17 0)
(-0.000256133 -3.32652e-06 -1.70619e-18 0.000110825 -4.73935e-17 0)
(-0.00025339 -3.32664e-06 -1.59571e-16 0.000109639 -2.43447e-18 0)
(-0.00025065 -3.32758e-06 6.73e-17 0.000108453 8.16837e-17 0)
(-0.000247902 -3.32905e-06 -6.40976e-17 0.000107265 3.16761e-17 0)
(-0.000245169 -3.33494e-06 3.07586e-17 0.000106083 -6.54603e-17 0)
(-0.000242397 -3.34659e-06 -1.33077e-16 0.000104888 -1.86318e-18 0)
(-0.000239698 -3.37147e-06 1.06447e-18 0.000103725 3.36283e-17 0)
(-0.000236803 -3.47471e-06 6.88982e-17 0.000102482 3.48644e-17 0)
(-0.000234238 -3.45492e-06 -1.03773e-16 0.000101417 -3.56261e-17 0)
(-0.000230568 -4.05982e-06 -2.42906e-16 9.97477e-05 -3.76914e-17 0)
(-0.000227754 -3.64151e-06 7.07618e-17 9.82799e-05 3.57804e-17 0)
(-0.000226329 -2.72989e-06 -1.0559e-16 9.78717e-05 -1.30391e-18 0)
(-0.000223431 -3.34142e-06 -6.90066e-17 9.67454e-05 7.01911e-17 0)
(-0.000220618 -3.19897e-06 9.79739e-19 9.54846e-05 3.58277e-17 0)
(-0.000217916 -3.35093e-06 -7.41326e-17 9.43168e-05 -7.30943e-17 0)
(-0.000215091 -3.37153e-06 -1.10139e-16 9.30646e-05 -3.76643e-17 0)
(-0.00021234 -3.33894e-06 -1.46747e-16 9.18711e-05 -1.63196e-18 0)
(-0.000209599 -3.32315e-06 -3.60441e-17 9.06891e-05 3.66017e-17 0)
(-0.000206866 -3.31626e-06 -7.36001e-17 8.95063e-05 3.64939e-17 0)
(-0.000204133 -3.31351e-06 -7.59869e-17 8.83266e-05 -3.83541e-17 0)
(-0.0002014 -3.31647e-06 -3.87116e-17 8.71436e-05 -3.82337e-17 0)
(-0.000198665 -3.3178e-06 -1.52362e-16 8.59601e-05 -1.52696e-18 0)
(-0.000195928 -3.31962e-06 -3.749e-17 8.47757e-05 3.80131e-17 0)
(-0.000193191 -3.31912e-06 -7.6394e-17 8.35909e-05 3.7913e-17 0)
(-0.000190454 -3.31878e-06 7.69304e-17 8.24069e-05 -3.81856e-17 0)
(-0.000187719 -3.31591e-06 -3.99801e-17 8.12225e-05 -3.95366e-17 0)
(-0.000184986 -3.31594e-06 -1.57605e-16 8.00414e-05 -1.42182e-18 0)
(-0.000182251 -3.31504e-06 8.09356e-19 7.88573e-05 3.96815e-17 0)
(-0.000179523 -3.31831e-06 -1.19698e-16 7.76794e-05 -1.0349e-18 0)
(-0.00017678 -3.33145e-06 -1.21213e-16 7.64926e-05 -4.11914e-17 0)
(-0.000174036 -3.31212e-06 -4.03824e-17 7.5296e-05 -3.34381e-19 0)
(-0.000171321 -3.30384e-06 -9.36881e-32 7.41328e-05 -5.77627e-30 0)
(-0.000168588 -3.32252e-06 -4.01019e-17 7.29471e-05 4.05561e-17 0)
(-0.000165845 -3.32144e-06 -8.14216e-17 7.17575e-05 4.04712e-17 0)
(-0.00016311 -3.32048e-06 -7.24356e-19 7.05767e-05 -4.13333e-17 0)
(-0.000160371 -3.32273e-06 -1.42438e-18 6.93898e-05 -8.31086e-17 0)
(-0.000157633 -3.32196e-06 -4.17421e-17 6.82064e-05 -3.02897e-19 0)
(-0.000154894 -3.32407e-06 -4.05799e-17 6.70205e-05 8.36726e-17 0)
(-0.000152153 -3.32461e-06 -1.2582e-16 6.5835e-05 4.13178e-17 0)
(-0.000149412 -3.32592e-06 -8.54063e-17 6.46487e-05 -4.29751e-17 0)
(-0.00014667 -3.32652e-06 -6.51346e-19 6.34623e-05 -4.26032e-17 0)
(-0.000143928 -3.3271e-06 -8.55445e-17 6.22758e-05 -5.5312e-19 0)
(-0.000141185 -3.32728e-06 -1.5265e-32 6.10892e-05 -9.63818e-35 0)
(-0.000138443 -3.32729e-06 -4.25433e-17 5.99026e-05 4.29216e-17 0)
(-0.000135701 -3.32724e-06 -1.30036e-16 5.8716e-05 -7.82255e-19 0)
(-0.000132958 -3.32732e-06 -1.31768e-16 5.75294e-05 -8.78834e-17 0)
(-0.000130216 -3.32754e-06 -3.4967e-16 5.63427e-05 -2.00169e-18 0)
(-0.000127473 -3.32766e-06 5.66095e-19 5.51559e-05 4.39144e-17 0)
(-0.000124731 -3.32776e-06 2.36148e-31 5.39693e-05 1.87953e-29 0)
(-0.000121988 -3.32772e-06 -8.84514e-17 5.27828e-05 -4.68805e-19 0)
(-0.000119246 -3.3276e-06 -1.33172e-16 5.15961e-05 -6.87398e-19 0)
(-0.000116503 -3.32782e-06 -2.67827e-16 5.04096e-05 -4.59243e-17 0)
(-0.000113761 -3.32798e-06 5.05199e-19 4.92228e-05 4.47385e-17 0)
(-0.000111018 -3.32819e-06 4.9302e-19 4.80361e-05 4.4892e-17 0)
(-0.000108276 -3.32832e-06 -9.00246e-17 4.68494e-05 -4.16106e-19 0)
(-0.000105533 -3.32826e-06 3.2451e-31 4.56628e-05 9.6334e-30 0)
(-0.000102791 -3.32831e-06 -4.56483e-19 4.44763e-05 -4.53303e-17 0)
(-0.000100048 -3.32844e-06 -9.04343e-17 4.32898e-05 4.50844e-17 0)
(-9.73061e-05 -3.32844e-06 4.60063e-17 4.21031e-05 4.57907e-17 0)
(-9.45639e-05 -3.32856e-06 -1.37536e-16 4.09165e-05 -4.62799e-17 0)
(-9.18216e-05 -3.32877e-06 -4.62403e-17 3.973e-05 -4.60386e-17 0)
(-8.90793e-05 -3.32871e-06 9.15167e-17 3.85434e-05 -4.56434e-17 0)
(-8.63371e-05 -3.32864e-06 -2.3038e-16 3.7357e-05 -8.29491e-19 0)
(-8.35949e-05 -3.32842e-06 -9.16417e-17 3.61705e-05 9.21221e-17 0)
(-8.08528e-05 -3.32835e-06 2.27278e-31 3.4984e-05 1.23463e-29 0)
(-7.81106e-05 -3.32832e-06 -3.46881e-19 3.37974e-05 -4.64426e-17 0)
(-7.53685e-05 -3.32848e-06 -2.3259e-16 3.2611e-05 -7.24109e-19 0)
(-7.26262e-05 -3.32865e-06 6.45051e-19 3.14245e-05 9.32972e-17 0)
(-6.98841e-05 -3.32854e-06 -4.64061e-17 3.02379e-05 4.66117e-17 0)
(-6.71423e-05 -3.32871e-06 9.33219e-17 2.90516e-05 -4.65816e-17 0)
(-6.43999e-05 -3.32872e-06 4.63279e-17 2.7865e-05 -9.37352e-17 0)
(-6.16576e-05 -3.32854e-06 -2.35204e-16 2.66783e-05 -4.7608e-17 0)
(-5.89156e-05 -3.32857e-06 -1.40944e-16 2.5492e-05 4.67584e-17 0)
(-5.61735e-05 -3.32851e-06 -4.7147e-17 2.43058e-05 -1.07939e-19 0)
(-5.34316e-05 -3.32834e-06 -9.44439e-17 2.31192e-05 -2.0534e-19 0)
(-5.06896e-05 -3.32851e-06 -9.48112e-17 2.19328e-05 -4.75174e-17 0)
(-4.79476e-05 -3.32835e-06 4.73605e-17 2.07462e-05 9.21317e-20 0)
(-4.52059e-05 -3.32832e-06 -9.44467e-17 1.95601e-05 9.47336e-17 0)
(-4.24642e-05 -3.32846e-06 9.47794e-17 1.83737e-05 -4.73504e-17 0)
(-3.97222e-05 -3.3283e-06 -1.42973e-16 1.7187e-05 -9.53684e-17 0)
(-3.69807e-05 -3.32797e-06 -1.42613e-16 1.6001e-05 4.74089e-17 0)
(-3.4239e-05 -3.32757e-06 1.52052e-19 1.48148e-05 4.76708e-17 0)
(-3.14981e-05 -3.32635e-06 -9.52324e-17 1.36285e-05 4.75946e-17 0)
(-2.87572e-05 -3.32525e-06 -9.53269e-17 1.24425e-05 4.76463e-17 0)
(-2.60186e-05 -3.32155e-06 -2.31092e-19 1.12568e-05 -9.55885e-17 0)
(-2.32833e-05 -3.31942e-06 -1.43654e-16 1.00751e-05 -1.19704e-16 0)
(-2.05446e-05 -3.31559e-06 9.58395e-17 8.88634e-06 9.57948e-17 0)
(-1.78128e-05 -3.28808e-06 -1.43446e-16 7.69287e-06 7.17235e-17 0)
(-1.50923e-05 -3.24343e-06 -9.57549e-17 6.51513e-06 -5.7866e-20 0)
(-1.23676e-05 -3.15556e-06 -9.5739e-17 5.32492e-06 4.78777e-17 0)
(-9.67053e-06 -3.03254e-06 4.78278e-17 4.13764e-06 -9.58629e-17 0)
(-6.92573e-06 -2.82973e-06 -3.83432e-16 2.97776e-06 -1.05791e-19 0)
(-4.25162e-06 -3.10076e-06 -9.58298e-17 2.11218e-06 1.43894e-16 0)
(-2.15444e-06 -4.43873e-06 -7.19542e-17 3.07626e-06 -1.44039e-16 3.83448e-30)
(-0.000342493 -4.25665e-05 6.95152e-19 9.93163e-05 8.82106e-19 0)
(-0.000366032 -9.3906e-06 -1.62551e-18 0.000144892 -1.02931e-18 0)
(-0.00036805 -4.47781e-06 -3.05902e-18 0.000154509 -1.37232e-18 0)
(-0.000364493 -3.41696e-06 -1.46278e-17 0.000155817 -4.84377e-18 0)
(-0.000361964 -3.56086e-06 6.37844e-18 0.000154715 -6.32366e-19 0)
(-0.000358802 -4.28832e-06 -4.8737e-18 0.000153279 1.91025e-18 0)
(-0.000356403 -4.63023e-06 8.55516e-18 0.000152049 1.22194e-17 0)
(-0.00035388 -4.89266e-06 8.7563e-18 0.000150879 1.34007e-18 0)
(-0.000351552 -4.99859e-06 -3.12241e-18 0.000149823 -9.98266e-18 0)
(-0.000349191 -5.05797e-06 1.65371e-17 0.000148791 1.9823e-18 0)
(-0.000346876 -5.07744e-06 2.28441e-17 0.00014779 2.03271e-17 0)
(-0.000344543 -5.08295e-06 1.98976e-17 0.000146792 1.95566e-18 0)
(-0.000342247 -5.07773e-06 -4.55965e-18 0.000145809 -2.16966e-17 0)
(-0.000339905 -5.06637e-06 1.32117e-17 0.000144816 -1.03882e-17 0)
(-0.000337742 -5.02951e-06 -9.78507e-18 0.000143899 -8.96891e-18 0)
(-0.000335278 -5.01814e-06 2.72306e-17 0.000142872 6.34008e-18 0)
(-0.000334284 -4.74507e-06 1.48452e-18 0.000142444 9.41209e-18 0)
(-0.000330104 -4.74603e-06 1.46595e-18 0.000140547 9.94723e-18 0)
(-0.000339979 -7.71105e-06 3.3853e-17 0.000145984 -1.04656e-17 0)
(-0.000325348 -5.0039e-06 -2.16726e-18 0.000138504 -1.65132e-17 0)
(-0.000324926 -4.80536e-06 1.00462e-17 0.000138488 -1.09169e-17 0)
(-0.000321246 -5.03474e-06 -2.40146e-17 0.000136938 -1.21625e-18 0)
(-0.000319076 -5.03159e-06 -5.08047e-17 0.000135972 -8.69971e-18 0)
(-0.000316586 -5.08345e-06 -1.23338e-17 0.000134898 5.9419e-18 0)
(-0.000314291 -5.08688e-06 2.91859e-17 0.000133907 2.15763e-17 0)
(-0.000311945 -5.09702e-06 1.33591e-17 0.000132906 -6.45828e-18 0)
(-0.000309631 -5.09786e-06 -1.59287e-17 0.000131917 -1.51847e-17 0)
(-0.000307306 -5.09961e-06 4.1777e-33 0.000130926 1.61379e-34 0)
(-0.000304986 -5.09976e-06 1.35441e-18 0.000129937 1.55914e-17 0)
(-0.000302664 -5.10001e-06 3.36025e-18 0.000128948 4.02052e-17 0)
(-0.000300344 -5.0999e-06 -2.00069e-18 0.000127959 -2.48535e-17 0)
(-0.000298023 -5.09962e-06 -1.32349e-18 0.00012697 -1.70521e-17 0)
(-0.000295702 -5.09897e-06 6.56591e-19 0.000125982 8.76577e-18 0)
(-0.000293382 -5.09805e-06 -1.95431e-18 0.000124993 -2.70108e-17 0)
(-0.000291062 -5.09636e-06 -3.42825e-17 0.000124004 3.58568e-17 0)
(-0.000288742 -5.09488e-06 -9.45099e-17 0.000123016 -2.7315e-18 0)
(-0.000286425 -5.09176e-06 -1.66283e-31 0.000122028 -1.85638e-30 0)
(-0.000284106 -5.09258e-06 3.96542e-17 0.000121043 1.07507e-18 0)
(-0.000281795 -5.08979e-06 -2.50284e-18 0.000120058 -4.06585e-17 0)
(-0.000279479 -5.1066e-06 4.14744e-17 0.00011908 1.05765e-18 0)
(-0.000277168 -5.11328e-06 -8.35156e-17 0.000118091 1.91343e-17 0)
(-0.000274854 -5.16054e-06 -4.02125e-17 0.000117121 5.31544e-17 0)
(-0.000272485 -5.18689e-06 -8.70846e-17 0.000116074 2.00578e-17 0)
(-0.000270127 -5.08776e-06 -4.62225e-17 0.000115034 -2.35784e-17 0)
(-0.000267849 -5.02345e-06 -4.82704e-17 0.000114137 -4.69944e-17 0)
(-0.000265541 -5.09932e-06 -1.1806e-16 0.000113151 -2.59339e-17 0)
(-0.000263185 -5.12362e-06 -7.02403e-17 0.000112135 2.23546e-17 0)
(-0.000260851 -5.1289e-06 -1.45357e-16 0.000111137 -2.96129e-18 0)
(-0.000258513 -5.13039e-06 -5.04393e-17 0.000110135 -2.56694e-17 0)
(-0.000256183 -5.12079e-06 -5.01227e-17 0.000109143 -9.69382e-19 0)
(-0.000253857 -5.11531e-06 -1.00765e-16 0.000108151 2.35975e-17 0)
(-0.000251533 -5.10885e-06 -5.06456e-17 0.000107162 2.49749e-17 0)
(-0.000249211 -5.10526e-06 -1.57714e-16 0.000106173 -2.82902e-18 0)
(-0.000246889 -5.10247e-06 -1.33431e-16 0.000105185 -2.33557e-18 0)
(-0.000244569 -5.101e-06 -1.0861e-18 0.000104196 -2.71284e-17 0)
(-0.000242248 -5.10006e-06 -5.49523e-17 0.000103208 -9.16671e-19 0)
(-0.000239928 -5.09964e-06 -5.5731e-17 0.00010222 -9.07892e-19 0)
(-0.000237608 -5.09946e-06 -5.43917e-17 0.000101231 5.56936e-17 0)
(-0.000235287 -5.09939e-06 -5.77882e-17 0.000100243 -1.52294e-17 0)
(-0.000232967 -5.09938e-06 -3.62104e-18 9.92541e-05 -1.01697e-16 0)
(-0.000230647 -5.09933e-06 1.53642e-18 9.82657e-05 4.41459e-17 0)
(-0.000228327 -5.0993e-06 -5.95119e-17 9.72773e-05 -8.63996e-19 0)
(-0.000226007 -5.09934e-06 -6.12493e-17 9.62888e-05 -3.10233e-17 0)
(-0.000223687 -5.09945e-06 -5.84884e-17 9.53003e-05 7.54815e-17 0)
(-0.000221367 -5.09961e-06 -3.52658e-32 9.43119e-05 -1.64595e-30 0)
(-0.000219047 -5.09968e-06 -6.33745e-17 9.33234e-05 -3.2075e-17 0)
(-0.000216727 -5.09985e-06 -1.25248e-16 9.23352e-05 2.99578e-17 0)
(-0.000214406 -5.09997e-06 -1.59504e-16 9.13466e-05 -2.0283e-18 0)
(-0.000212089 -5.10118e-06 -1.93471e-16 9.03593e-05 -2.40765e-18 0)
(-0.000209764 -5.10214e-06 -1.39731e-18 8.93708e-05 -4.89468e-17 0)
(-0.000207459 -5.1089e-06 -6.49241e-17 8.83896e-05 3.2183e-17 0)
(-0.000205122 -5.1121e-06 -1.33023e-16 8.74026e-05 -1.55258e-18 0)
(-0.000202903 -5.14438e-06 -1.35241e-16 8.64651e-05 -3.51666e-17 0)
(-0.000200488 -5.14481e-06 -6.64855e-17 8.54617e-05 5.01752e-17 0)
(-0.000198992 -5.28267e-06 6.93454e-17 8.48124e-05 3.5031e-17 0)
(-0.000195512 -5.16487e-06 -1.38197e-16 8.32316e-05 -1.47849e-18 0)
(-0.000200664 -3.53776e-06 -1.50019e-17 8.61579e-05 -4.19883e-17 0)
(-0.000190928 -5.30457e-06 8.4789e-19 8.12851e-05 3.5221e-17 0)
(-0.000189732 -5.27344e-06 -1.41923e-16 8.08343e-05 -1.43591e-18 0)
(-0.000186637 -5.09115e-06 1.42312e-16 7.95443e-05 -3.44173e-17 0)
(-0.000184429 -5.15183e-06 8.19027e-19 7.86139e-05 3.61308e-17 0)
(-0.000181983 -5.17393e-06 7.19538e-17 7.75189e-05 -3.57384e-17 0)
(-0.000179664 -5.11446e-06 7.25486e-17 7.65291e-05 -3.60389e-17 0)
(-0.000177353 -5.09216e-06 7.87607e-19 7.55548e-05 3.70068e-17 0)
(-0.000175044 -5.08475e-06 1.49762e-16 7.45729e-05 3.86159e-17 0)
(-0.000172732 -5.08118e-06 -7.67085e-19 7.3593e-05 -3.75719e-17 0)
(-0.000170419 -5.08582e-06 7.48509e-17 7.2607e-05 -3.72041e-17 0)
(-0.000168102 -5.08755e-06 7.61543e-17 7.16202e-05 6.36116e-19 0)
(-0.000165785 -5.09011e-06 7.36235e-19 7.06323e-05 3.83919e-17 0)
(-0.000163468 -5.08932e-06 1.93063e-16 6.96438e-05 1.5464e-18 0)
(-0.000161151 -5.08885e-06 -7.15653e-19 6.86565e-05 -3.89199e-17 0)
(-0.000158835 -5.08449e-06 7.82662e-17 6.76687e-05 6.01018e-19 0)
(-0.000156522 -5.0844e-06 7.87756e-17 6.66859e-05 5.9229e-19 0)