/*--------------------------------*- C++ -*----------------------------------*\
| =========                 |                                                 |
| \\      /  F ield         | foam-extend: Open Source CFD                    |
|  \\    /   O peration     | Version:     4.0                                |
|   \\  /    A nd           | Web:         http://www.foam-extend.org         |
|    \\/     M anipulation  |                                                 |
\*---------------------------------------------------------------------------*/
FoamFile
{
    version     2.0;
    format      ascii;
    class       volScalarField;
    location    "1";
    object      epsilonEq;
}
// * * * * * * * * * * * * * * * * * * * * * * * * * * * * * * * * * * * * * //

dimensions      [0 0 0 0 0 0 0];

internalField   nonuniform List<scalar> 
2560
(
0.000428138
0.000408522
0.000415462
0.00041252
0.00041318
0.000411035
0.000409146
0.000406617
0.000404101
0.000401453
0.000398814
0.000396144
0.000393498
0.000390814
0.000388195
0.000385462
0.000382679
0.000380147
0.000376737
0.000373916
0.000371759
0.000369104
0.000366667
0.000363959
0.000361342
0.000358661
0.000356002
0.00035333
0.000350663
0.000347994
0.000345326
0.000342657
0.000339989
0.000337321
0.000334654
0.000331988
0.000329324
0.000326659
0.000323997
0.00032133
0.000318651
0.000315966
0.000313234
0.00031053
0.000307926
0.00030529
0.000302609
0.000299931
0.000297243
0.000294561
0.000291883
0.000289208
0.000286536
0.000283866
0.000281198
0.00027853
0.000275862
0.000273195
0.000270527
0.00026786
0.000265192
0.000262525
0.000259857
0.00025719
0.000254523
0.000251855
0.000249188
0.000246519
0.000243854
0.00024118
0.00023852
0.00023582
0.000233175
0.000230364
0.000227685
0.000224704
0.000222115
0.000219909
0.000217173
0.000214616
0.000212011
0.000209268
0.000206587
0.000203914
0.000201254
0.000198596
0.000195938
0.000193278
0.000190617
0.000187955
0.000185293
0.000182632
0.000179975
0.000177314
0.000174659
0.00017199
0.000169318
0.000166677
0.000164019
0.00016135
0.00015869
0.000156025
0.000153361
0.000150697
0.000148031
0.000145365
0.000142697
0.000140029
0.000137361
0.000134693
0.000132026
0.000129358
0.00012669
0.000124022
0.000121354
0.000118686
0.000116018
0.00011335
0.000110682
0.000108014
0.000105346
0.000102678
0.00010001
9.73425e-05
9.46749e-05
9.20074e-05
8.93398e-05
8.66721e-05
8.40046e-05
8.13372e-05
7.86698e-05
7.60024e-05
7.33351e-05
7.06675e-05
6.80003e-05
6.53333e-05
6.26658e-05
5.99986e-05
5.73316e-05
5.46644e-05
5.19977e-05
4.9331e-05
4.66644e-05
4.39983e-05
4.1332e-05
3.86657e-05
3.60003e-05
3.3335e-05
3.06709e-05
2.80078e-05
2.53469e-05
2.26909e-05
2.00348e-05
1.73868e-05
1.47777e-05
1.22103e-05
9.76928e-06
7.40347e-06
5.57644e-06
4.22702e-06
0.000345075
0.000363082
0.000365451
0.000362901
0.000361643
0.00035915
0.000357112
0.000354759
0.000352498
0.000350164
0.000347854
0.000345522
0.000343215
0.000340878
0.00033862
0.000336285
0.000334148
0.000331959
0.000327593
0.000325551
0.000324596
0.000321981
0.000319858
0.000317465
0.000315175
0.000312834
0.000310514
0.000308184
0.000305858
0.00030353
0.000301203
0.000298876
0.000296549
0.000294222
0.000291896
0.000289571
0.000287247
0.000284923
0.000282602
0.00028028
0.000277949
0.000275621
0.00027324
0.000270869
0.000268602
0.000266296
0.000263948
0.000261612
0.000259267
0.000256929
0.000254595
0.000252263
0.000249934
0.000247605
0.000245278
0.000242952
0.000240625
0.000238299
0.000235973
0.000233646
0.00023132
0.000228994
0.000226668
0.000224342
0.000222016
0.000219689
0.000217364
0.000215037
0.000212712
0.000210381
0.000208063
0.000205714
0.000203427
0.000200978
0.000198824
0.000195686
0.000193166
0.000192038
0.000189655
0.000187244
0.000184956
0.000182546
0.00018021
0.000177886
0.000175567
0.00017325
0.000170932
0.000168611
0.00016629
0.000163968
0.000161646
0.000159325
0.000157008
0.000154688
0.000152375
0.000150049
0.000147716
0.000145419
0.0001431
0.000140771
0.000138453
0.000136129
0.000133807
0.000131484
0.000129159
0.000126835
0.000124509
0.000122184
0.000119858
0.000117532
0.000115207
0.000112881
0.000110555
0.00010823
0.000105904
0.000103579
0.000101253
9.89281e-05
9.66028e-05
9.42776e-05
9.19525e-05
8.96276e-05
8.73029e-05
8.49785e-05
8.26539e-05
8.03297e-05
7.80057e-05
7.56817e-05
7.33581e-05
7.10346e-05
6.87115e-05
6.63884e-05
6.40658e-05
6.17434e-05
5.94213e-05
5.70999e-05
5.47785e-05
5.24575e-05
5.01376e-05
4.78182e-05
4.54995e-05
4.31817e-05
4.08648e-05
3.85494e-05
3.62354e-05
3.39227e-05
3.16126e-05
2.93049e-05
2.70007e-05
2.47007e-05
2.2407e-05
2.01247e-05
1.78462e-05
1.5577e-05
1.33352e-05
1.10964e-05
8.90047e-06
6.71575e-06
5.17953e-06
5.95687e-06
0.000272124
0.000304246
0.000310026
0.000308375
0.000306227
0.000303524
0.000301402
0.000299229
0.000297232
0.000295226
0.000293263
0.00029129
0.000289347
0.000287369
0.000285543
0.000283472
0.000282623
0.000279034
0.000288064
0.000275013
0.000274731
0.000271635
0.000269781
0.000267672
0.000265726
0.000263743
0.000261786
0.000259821
0.000257861
0.000255899
0.000253938
0.000251976
0.000250015
0.000248054
0.000246094
0.000244133
0.000242175
0.000240217
0.000238264
0.000236312
0.000234357
0.000232411
0.000230392
0.000228378
0.000226487
0.000224539
0.000222542
0.000220569
0.000218591
0.000216622
0.000214656
0.000212692
0.00021073
0.000208769
0.000206808
0.000204848
0.000202888
0.000200927
0.000198967
0.000197007
0.000195046
0.000193086
0.000191126
0.000189166
0.000187206
0.000185246
0.000183286
0.000181325
0.000179368
0.000177405
0.000175458
0.000173488
0.000171619
0.000169591
0.000168327
0.000165335
0.000169987
0.000161472
0.000160489
0.000157881
0.000156023
0.000153932
0.000151971
0.000150023
0.000148073
0.000146123
0.000144169
0.000142213
0.000140256
0.000138298
0.000136341
0.000134385
0.000132433
0.000130478
0.000128535
0.000126573
0.000124601
0.00012268
0.000120727
0.000118761
0.00011681
0.000114852
0.000112897
0.00011094
0.000108983
0.000107025
0.000105067
0.000103109
0.00010115
9.91925e-05
9.72345e-05
9.52767e-05
9.33189e-05
9.13613e-05
8.94041e-05
8.74472e-05
8.54902e-05
8.35335e-05
8.15768e-05
7.96205e-05
7.76647e-05
7.5709e-05
7.37538e-05
7.1799e-05
6.98442e-05
6.789e-05
6.59364e-05
6.39832e-05
6.20305e-05
6.00783e-05
5.81268e-05
5.61759e-05
5.4226e-05
5.22769e-05
5.03285e-05
4.83815e-05
4.64354e-05
4.44904e-05
4.25475e-05
4.06063e-05
3.86668e-05
3.67299e-05
3.47953e-05
3.28642e-05
3.09372e-05
2.90141e-05
2.7097e-05
2.5186e-05
2.32834e-05
2.13906e-05
1.95112e-05
1.76531e-05
1.58125e-05
1.39948e-05
1.21986e-05
1.04123e-05
8.70884e-06
7.16758e-06
6.52934e-06
7.38217e-06
0.000211872
0.000246097
0.000255034
0.000254437
0.000252259
0.000249656
0.000247593
0.000245642
0.000243913
0.000242226
0.000240596
0.000238967
0.000237365
0.000235728
0.000234172
0.000232389
0.000231032
0.000228085
0.000226229
0.000226518
0.000224751
0.000222939
0.000221307
0.00021962
0.000218013
0.000216387
0.000214781
0.00021317
0.000211562
0.000209954
0.000208346
0.000206738
0.00020513
0.000203522
0.000201915
0.000200307
0.000198702
0.000197096
0.0001955
0.000193906
0.000192318
0.000190747
0.000189074
0.000187378
0.000185863
0.000184277
0.000182611
0.000180987
0.000179363
0.00017775
0.000176141
0.000174533
0.000172926
0.000171319
0.000169713
0.000168106
0.0001665
0.000164893
0.000163286
0.00016168
0.000160073
0.000158467
0.00015686
0.000155254
0.000153647
0.000152041
0.000150435
0.000148828
0.000147224
0.000145617
0.000144022
0.000142414
0.000140857
0.000139252
0.000137779
0.000136183
0.000133524
0.000132121
0.000131221
0.000129509
0.000128058
0.000126357
0.000124748
0.000123177
0.000121585
0.00011999
0.00011839
0.000116785
0.000115181
0.000113575
0.000111971
0.000110367
0.000108768
0.000107167
0.000105584
0.000103974
0.00010235
0.000100796
9.91964e-05
9.75775e-05
9.59836e-05
9.43808e-05
9.27805e-05
9.11793e-05
8.95767e-05
8.79746e-05
8.63719e-05
8.47699e-05
8.31679e-05
8.15663e-05
7.99647e-05
7.83634e-05
7.67625e-05
7.51618e-05
7.35618e-05
7.19624e-05
7.0363e-05
6.8764e-05
6.71653e-05
6.55673e-05
6.39701e-05
6.23733e-05
6.07772e-05
5.91818e-05
5.75869e-05
5.59928e-05
5.44e-05
5.2808e-05
5.12169e-05
4.96269e-05
4.80382e-05
4.64508e-05
4.48653e-05
4.32814e-05
4.16989e-05
4.01189e-05
3.85412e-05
3.69658e-05
3.53939e-05
3.38255e-05
3.22604e-05
3.07003e-05
2.9145e-05
2.75962e-05
2.6055e-05
2.45215e-05
2.29986e-05
2.14874e-05
1.99915e-05
1.85125e-05
1.70569e-05
1.56325e-05
1.42341e-05
1.28786e-05
1.15935e-05
1.03104e-05
9.1914e-06
8.3004e-06
8.13795e-06
8.28018e-06
0.000158357
0.000188545
0.000198463
0.000198629
0.000196783
0.000194499
0.000192664
0.000191016
0.0001896
0.000188254
0.000186971
0.000185697
0.000184446
0.000183164
0.000181936
0.00018055
0.000179284
0.000177643
0.000176492
0.000175672
0.000174425
0.00017323
0.000171986
0.000170691
0.000169441
0.000168179
0.000166932
0.000165681
0.000164434
0.000163185
0.000161938
0.00016069
0.000159443
0.000158194
0.000156947
0.000155698
0.000154453
0.000153206
0.000151972
0.00015074
0.00014953
0.000148336
0.000147024
0.000145697
0.000144533
0.000143295
0.00014197
0.000140703
0.000139443
0.000138192
0.000136948
0.000135703
0.000134459
0.000133214
0.000131968
0.000130723
0.000129477
0.000128231
0.000126985
0.000125739
0.000124494
0.000123248
0.000122003
0.000120757
0.000119511
0.000118266
0.000117021
0.000115776
0.000114533
0.000113287
0.000112052
0.000110806
0.000109592
0.000108333
0.000107054
0.00010578
0.000104227
0.000103004
0.000101927
0.00010075
9.96354e-05
9.83249e-05
9.70874e-05
9.5894e-05
9.46686e-05
9.34342e-05
9.21946e-05
9.09494e-05
8.97047e-05
8.8459e-05
8.72137e-05
8.597e-05
8.47317e-05
8.34907e-05
8.22783e-05
8.10216e-05
7.97504e-05
7.85827e-05
7.73445e-05
7.60798e-05
7.48493e-05
7.36104e-05
7.23724e-05
7.11351e-05
6.98954e-05
6.86571e-05
6.74184e-05
6.61807e-05
6.49432e-05
6.37065e-05
6.24699e-05
6.12338e-05
5.99984e-05
5.87635e-05
5.75296e-05
5.62966e-05
5.50638e-05
5.38319e-05
5.26005e-05
5.13702e-05
5.01412e-05
4.8913e-05
4.76859e-05
4.64599e-05
4.5235e-05
4.40116e-05
4.279e-05
4.157e-05
4.03515e-05
3.91349e-05
3.79206e-05
3.67086e-05
3.54994e-05
3.42932e-05
3.30895e-05
3.18896e-05
3.06938e-05
2.95022e-05
2.83159e-05
2.71352e-05
2.59602e-05
2.47931e-05
2.3634e-05
2.24847e-05
2.13473e-05
2.02217e-05
1.91119e-05
1.80198e-05
1.69493e-05
1.59022e-05
1.48826e-05
1.39051e-05
1.29243e-05
1.2146e-05
1.13523e-05
1.05241e-05
9.93869e-06
9.50915e-06
9.47087e-06
8.7872e-06
0.000111018
0.000133294
0.000142199
0.000142747
0.000141401
0.000139622
0.000138166
0.000136902
0.00013584
0.000134853
0.000133923
0.000133004
0.000132102
0.000131175
0.000130277
0.000129277
0.000128361
0.000127362
0.000126472
0.000125748
0.000124911
0.000124109
0.000123209
0.000122301
0.000121407
0.000120507
0.000119616
0.000118724
0.000117834
0.000116943
0.000116053
0.000115162
0.000114272
0.000113381
0.00011249
0.000111597
0.000110708
0.000109816
0.000108941
0.000108065
0.000107232
0.000106433
0.000105506
0.000104471
0.000103651
0.000102804
0.000101804
0.000100891
9.99948e-05
9.9104e-05
9.82222e-05
9.73369e-05
9.64529e-05
9.55667e-05
9.46804e-05
9.37931e-05
9.29057e-05
9.2018e-05
9.11303e-05
9.02428e-05
8.93553e-05
8.84679e-05
8.75807e-05
8.66935e-05
8.58065e-05
8.49196e-05
8.40332e-05
8.31465e-05
8.22619e-05
8.13756e-05
8.04961e-05
7.96098e-05
7.87365e-05
7.78407e-05
7.69097e-05
7.59813e-05
7.49743e-05
7.40844e-05
7.31903e-05
7.23664e-05
7.16313e-05
7.07097e-05
6.98096e-05
6.90026e-05
6.81419e-05
6.72641e-05
6.63837e-05
6.54955e-05
6.46091e-05
6.37215e-05
6.28339e-05
6.19481e-05
6.1067e-05
6.01834e-05
5.93379e-05
5.84437e-05
5.75349e-05
5.67392e-05
5.58581e-05
5.49448e-05
5.40774e-05
5.32039e-05
5.23266e-05
5.1453e-05
5.05753e-05
4.97005e-05
4.8825e-05
4.79513e-05
4.70781e-05
4.6206e-05
4.53344e-05
4.44636e-05
4.35939e-05
4.27253e-05
4.1858e-05
4.09919e-05
4.01265e-05
3.92625e-05
3.83996e-05
3.75383e-05
3.6679e-05
3.58211e-05
3.49648e-05
3.41104e-05
3.32579e-05
3.24077e-05
3.15602e-05
3.07151e-05
2.98728e-05
2.90332e-05
2.81973e-05
2.7365e-05
2.65367e-05
2.57131e-05
2.48935e-05
2.40794e-05
2.32714e-05
2.24696e-05
2.16752e-05
2.08886e-05
2.01102e-05
1.93427e-05
1.85862e-05
1.7842e-05
1.71128e-05
1.63987e-05
1.57033e-05
1.50285e-05
1.43782e-05
1.37509e-05
1.31622e-05
1.25845e-05
1.21085e-05
1.12692e-05
1.12267e-05
1.08735e-05
1.0677e-05
1.05198e-05
1.04625e-05
9.08382e-06
6.77391e-05
7.92903e-05
8.58364e-05
8.64668e-05
8.5606e-05
8.44193e-05
8.34354e-05
8.26184e-05
8.19459e-05
8.13389e-05
8.07741e-05
8.02179e-05
7.96737e-05
7.91088e-05
7.85593e-05
7.79545e-05
7.73684e-05
7.68734e-05
7.65e-05
7.58811e-05
7.53315e-05
7.49129e-05
7.4381e-05
7.3853e-05
7.33206e-05
7.27859e-05
7.22556e-05
7.17243e-05
7.11949e-05
7.0665e-05
7.01357e-05
6.9606e-05
6.90763e-05
6.85456e-05
6.80152e-05
6.74821e-05
6.69525e-05
6.64165e-05
6.59009e-05
6.53722e-05
6.49168e-05
6.44619e-05
6.3998e-05
6.34763e-05
6.28178e-05
6.2269e-05
6.16571e-05
6.10991e-05
6.05813e-05
6.00543e-05
5.95395e-05
5.90177e-05
5.84974e-05
5.79739e-05
5.74502e-05
5.69254e-05
5.64004e-05
5.58751e-05
5.535e-05
5.48249e-05
5.43001e-05
5.37754e-05
5.3251e-05
5.27267e-05
5.22028e-05
5.1679e-05
5.11558e-05
5.06325e-05
5.0111e-05
4.95881e-05
4.90698e-05
4.85454e-05
4.80248e-05
4.74903e-05
4.69066e-05
4.64072e-05
4.5915e-05
4.52728e-05
4.46695e-05
4.41731e-05
4.36734e-05
4.32651e-05
4.27738e-05
4.23135e-05
4.18267e-05
4.13043e-05
4.07897e-05
4.02644e-05
3.97431e-05
3.92204e-05
3.86973e-05
3.8176e-05
3.76575e-05
3.71358e-05
3.66683e-05
3.61185e-05
3.55695e-05
3.51895e-05
3.4671e-05
3.41245e-05
3.36168e-05
3.31212e-05
3.26105e-05
3.21099e-05
3.16026e-05
3.11e-05
3.05968e-05
3.00962e-05
2.95965e-05
2.90983e-05
2.86013e-05
2.81056e-05
2.76118e-05
2.71197e-05
2.66293e-05
2.61409e-05
2.56538e-05
2.51687e-05
2.46857e-05
2.42051e-05
2.37272e-05
2.32515e-05
2.27782e-05
2.23078e-05
2.18403e-05
2.13761e-05
2.09157e-05
2.04585e-05
2.00053e-05
1.95559e-05
1.91114e-05
1.86716e-05
1.8237e-05
1.78082e-05
1.73845e-05
1.69674e-05
1.65575e-05
1.61546e-05
1.57596e-05
1.53732e-05
1.49953e-05
1.46282e-05
1.42714e-05
1.39255e-05
1.35929e-05
1.32729e-05
1.29673e-05
1.2677e-05
1.24046e-05
1.21475e-05
1.19238e-05
1.17029e-05
1.1592e-05
1.1387e-05
1.11814e-05
1.12009e-05
1.12358e-05
1.1238e-05
1.1089e-05
9.2233e-06
3.09269e-05
2.63537e-05
3.10775e-05
3.1833e-05
3.12982e-05
3.06119e-05
3.00348e-05
2.96516e-05
2.93618e-05
2.91391e-05
2.89436e-05
2.87578e-05
2.85802e-05
2.83865e-05
2.82098e-05
2.79994e-05
2.78379e-05
2.77685e-05
2.76444e-05
2.7339e-05
2.7217e-05
2.71319e-05
2.69604e-05
2.68072e-05
2.6639e-05
2.6475e-05
2.63114e-05
2.61485e-05
2.59867e-05
2.5825e-05
2.56636e-05
2.55021e-05
2.53405e-05
2.5178e-05
2.50155e-05
2.48498e-05
2.4686e-05
2.45119e-05
2.4354e-05
2.41688e-05
2.40643e-05
2.40164e-05
2.39944e-05
2.41941e-05
2.35473e-05
2.33461e-05
2.31225e-05
2.28974e-05
2.27725e-05
2.26118e-05
2.24721e-05
2.2321e-05
2.21727e-05
2.20208e-05
2.18691e-05
2.17163e-05
2.15636e-05
2.14108e-05
2.12584e-05
2.11063e-05
2.09546e-05
2.08033e-05
2.06525e-05
2.05021e-05
2.03523e-05
2.02029e-05
2.00542e-05
1.99055e-05
1.97585e-05
1.96099e-05
1.94649e-05
1.93125e-05
1.91647e-05
1.90037e-05
1.88338e-05
1.87322e-05
1.86123e-05
1.83845e-05
1.81301e-05
1.80062e-05
1.75281e-05
1.77617e-05
1.76773e-05
1.75831e-05
1.75038e-05
1.73482e-05
1.72175e-05
1.70708e-05
1.6931e-05
1.67886e-05
1.66467e-05
1.65011e-05
1.6362e-05
1.61927e-05
1.61132e-05
1.59428e-05
1.58251e-05
1.58004e-05
1.56479e-05
1.55129e-05
1.53606e-05
1.52681e-05
1.51346e-05
1.50226e-05
1.48989e-05
1.47819e-05
1.46636e-05
1.45479e-05
1.4433e-05
1.43196e-05
1.42074e-05
1.40966e-05
1.39876e-05
1.38801e-05
1.37741e-05
1.36697e-05
1.35665e-05
1.3465e-05
1.33651e-05
1.32668e-05
1.31705e-05
1.30758e-05
1.29826e-05
1.28912e-05
1.28016e-05
1.2714e-05
1.26286e-05
1.25448e-05
1.2463e-05
1.2383e-05
1.23054e-05
1.22301e-05
1.21569e-05
1.20862e-05
1.2017e-05
1.19504e-05
1.18863e-05
1.18242e-05
1.17646e-05
1.17075e-05
1.16524e-05
1.16004e-05
1.15508e-05
1.15032e-05
1.14592e-05
1.14176e-05
1.13784e-05
1.13424e-05
1.13106e-05
1.12801e-05
1.12615e-05
1.12349e-05
1.12446e-05
1.12059e-05
1.12754e-05
1.13861e-05
1.1546e-05
1.16075e-05
1.14183e-05
9.27693e-06
3.09311e-05
2.63612e-05
3.10851e-05
3.18408e-05
3.13062e-05
3.06204e-05
3.00438e-05
2.96623e-05
2.9375e-05
2.91587e-05
2.89714e-05
2.88049e-05
2.86481e-05
2.85013e-05
2.83677e-05
2.82241e-05
2.81199e-05
2.78827e-05
2.75879e-05
2.74986e-05
2.73923e-05
2.71735e-05
2.69952e-05
2.68179e-05
2.66467e-05
2.64831e-05
2.63186e-05
2.61571e-05
2.59948e-05
2.58337e-05
2.56725e-05
2.5512e-05
2.53518e-05
2.5193e-05
2.50344e-05
2.48795e-05
2.4721e-05
2.45742e-05
2.43944e-05
2.42714e-05
2.38983e-05
2.39154e-05
2.23389e-05
2.24769e-05
2.42996e-05
2.35024e-05
2.33207e-05
2.30754e-05
2.28684e-05
2.26944e-05
2.25194e-05
2.23562e-05
2.21941e-05
2.20362e-05
2.18796e-05
2.17247e-05
2.15707e-05
2.14175e-05
2.12648e-05
2.11126e-05
2.09607e-05
2.08094e-05
2.06587e-05
2.05085e-05
2.03587e-05
2.02093e-05
2.00602e-05
1.99114e-05
1.97629e-05
1.96142e-05
1.94664e-05
1.93163e-05
1.91745e-05
1.90269e-05
1.89064e-05
1.8796e-05
1.85458e-05
1.85688e-05
1.8365e-05
1.92584e-05
1.87962e-05
1.7257e-05
1.76335e-05
1.74818e-05
1.74178e-05
1.73081e-05
1.71843e-05
1.70603e-05
1.69333e-05
1.68046e-05
1.66836e-05
1.65476e-05
1.64462e-05
1.62688e-05
1.61727e-05
1.59759e-05
1.56232e-05
1.57306e-05
1.55896e-05
1.55196e-05
1.53432e-05
1.52433e-05
1.5125e-05
1.50111e-05
1.4896e-05
1.478e-05
1.46646e-05
1.45492e-05
1.44348e-05
1.43215e-05
1.42097e-05
1.40994e-05
1.39904e-05
1.38826e-05
1.37762e-05
1.36715e-05
1.35684e-05
1.34672e-05
1.33673e-05
1.32688e-05
1.31721e-05
1.30772e-05
1.29841e-05
1.28928e-05
1.28031e-05
1.27154e-05
1.26298e-05
1.25461e-05
1.24642e-05
1.23841e-05
1.23064e-05
1.2231e-05
1.21579e-05
1.2087e-05
1.20178e-05
1.19512e-05
1.18868e-05
1.18247e-05
1.17651e-05
1.17081e-05
1.1653e-05
1.16007e-05
1.15511e-05
1.15038e-05
1.14595e-05
1.14183e-05
1.13792e-05
1.13432e-05
1.13115e-05
1.12808e-05
1.12601e-05
1.12332e-05
1.12284e-05
1.12294e-05
1.12845e-05
1.13876e-05
1.15466e-05
1.15991e-05
1.14154e-05
9.28156e-06
6.7745e-05
7.92978e-05
8.58447e-05
8.64755e-05
8.56148e-05
8.44285e-05
8.3445e-05
8.26296e-05
8.19595e-05
8.13587e-05
8.08014e-05
8.02644e-05
7.97389e-05
7.92222e-05
7.87114e-05
7.81903e-05
7.76797e-05
7.70727e-05
7.64647e-05
7.60174e-05
7.55121e-05
7.49443e-05
7.44058e-05
7.38614e-05
7.33263e-05
7.27943e-05
7.22631e-05
7.17335e-05
7.12037e-05
7.06745e-05
7.01453e-05
6.96167e-05
6.90883e-05
6.85614e-05
6.80348e-05
6.75129e-05
6.6989e-05
6.6484e-05
6.59562e-05
6.55432e-05
6.49257e-05
6.52449e-05
6.34153e-05
7.2441e-05
6.23521e-05
6.31256e-05
6.17526e-05
6.13133e-05
6.06693e-05
6.01393e-05
5.95871e-05
5.90542e-05
5.85198e-05
5.79904e-05
5.74617e-05
5.69347e-05
5.64084e-05
5.58827e-05
5.53573e-05
5.48322e-05
5.43072e-05
5.37826e-05
5.32582e-05
5.27341e-05
5.22102e-05
5.16865e-05
5.11628e-05
5.06395e-05
5.0116e-05
4.9593e-05
4.90703e-05
4.85478e-05
4.803e-05
4.75089e-05
4.69955e-05
4.6474e-05
4.58093e-05
4.53712e-05
4.43401e-05
4.46987e-05
3.75718e-05
4.3654e-05
4.22529e-05
4.22902e-05
4.1709e-05
4.12678e-05
4.07525e-05
4.02538e-05
3.97464e-05
3.9239e-05
3.87405e-05
3.82271e-05
3.77621e-05
3.72139e-05
3.68687e-05
3.62731e-05
3.54409e-05
3.49651e-05
3.46869e-05
3.41155e-05
3.36136e-05
3.30827e-05
3.26006e-05
3.20946e-05
3.15995e-05
3.10978e-05
3.05986e-05
3.00982e-05
2.95993e-05
2.91013e-05
2.86048e-05
2.81097e-05
2.7616e-05
2.71234e-05
2.66326e-05
2.61437e-05
2.56569e-05
2.51722e-05
2.46893e-05
2.42084e-05
2.37297e-05
2.32539e-05
2.27809e-05
2.23105e-05
2.1843e-05
2.13786e-05
2.09179e-05
2.04609e-05
2.00074e-05
1.95579e-05
1.91133e-05
1.86735e-05
1.8239e-05
1.78098e-05
1.73861e-05
1.69689e-05
1.65587e-05
1.61557e-05
1.57608e-05
1.53743e-05
1.49966e-05
1.4629e-05
1.42722e-05
1.39268e-05
1.35938e-05
1.32746e-05
1.29692e-05
1.26791e-05
1.24064e-05
1.21491e-05
1.19141e-05
1.16907e-05
1.15036e-05
1.13456e-05
1.12406e-05
1.11977e-05
1.12441e-05
1.12345e-05
1.10963e-05
9.22105e-06
0.000111024
0.000133302
0.000142208
0.000142756
0.00014141
0.000139631
0.000138176
0.000136913
0.000135852
0.00013487
0.000133946
0.000133043
0.000132154
0.000131271
0.000130392
0.000129501
0.000128615
0.000127659
0.000126706
0.000125886
0.000125016
0.000124101
0.000123206
0.000122303
0.000121408
0.000120515
0.000119623
0.000118733
0.000117842
0.000116952
0.000116062
0.000115173
0.000114283
0.000113395
0.000112507
0.000111624
0.000110739
0.000109869
0.000108989
0.000108162
0.000107295
0.000106521
0.000105872
0.000103364
0.000102525
0.000102792
0.00010172
0.000100989
0.000100045
9.9166e-05
9.82589e-05
9.73669e-05
9.64719e-05
9.55813e-05
9.4691e-05
9.38021e-05
9.29136e-05
9.20257e-05
9.11378e-05
9.02502e-05
8.93626e-05
8.84752e-05
8.7588e-05
8.67009e-05
8.5814e-05
8.49271e-05
8.40402e-05
8.31536e-05
8.22668e-05
8.13805e-05
8.04947e-05
7.9609e-05
7.87266e-05
7.78405e-05
7.69562e-05
7.60568e-05
7.50781e-05
7.41985e-05
7.32792e-05
7.22103e-05
7.24665e-05
7.15753e-05
6.9857e-05
6.90981e-05
6.8098e-05
6.72506e-05
6.63599e-05
6.549e-05
6.46137e-05
6.37377e-05
6.28727e-05
6.19886e-05
6.11854e-05
6.02314e-05
5.99266e-05
5.82311e-05
6.25745e-05
5.71975e-05
5.60644e-05
5.48541e-05
5.40837e-05
5.316e-05
5.23205e-05
5.14396e-05
5.05742e-05
4.96993e-05
4.88275e-05
4.79538e-05
4.70813e-05
4.62092e-05
4.53381e-05
4.44678e-05
4.35982e-05
4.27293e-05
4.18615e-05
4.0995e-05
4.01299e-05
3.92661e-05
3.84033e-05
3.75418e-05
3.66818e-05
3.58238e-05
3.49677e-05
3.41132e-05
3.32607e-05
3.24105e-05
3.15627e-05
3.07177e-05
2.98752e-05
2.90355e-05
2.81995e-05
2.73673e-05
2.6539e-05
2.5715e-05
2.48953e-05
2.4081e-05
2.32729e-05
2.24712e-05
2.16765e-05
2.08897e-05
2.01118e-05
1.93439e-05
1.85874e-05
1.78435e-05
1.71136e-05
1.64008e-05
1.57061e-05
1.50317e-05
1.43818e-05
1.37572e-05
1.31659e-05
1.26018e-05
1.20849e-05
1.16147e-05
1.12022e-05
1.08756e-05
1.06768e-05
1.052e-05
1.04489e-05
9.07654e-06
0.000158364
0.000188553
0.000198472
0.000198638
0.000196792
0.000194508
0.000192674
0.000191026
0.000189611
0.000188269
0.000186989
0.000185726
0.000184477
0.000183231
0.000181988
0.000180732
0.000179479
0.000178178
0.000176888
0.000175691
0.000174456
0.000173196
0.000171945
0.000170688
0.000169437
0.000168187
0.000166938
0.00016569
0.000164442
0.000163195
0.000161947
0.0001607
0.000159453
0.000158207
0.000156961
0.000155718
0.000154475
0.000153243
0.000152001
0.00015079
0.00014953
0.000148211
0.000146981
0.000145403
0.000144005
0.000143084
0.00014187
0.000140739
0.000139464
0.000138231
0.000136971
0.000135724
0.000134473
0.000133226
0.000131978
0.000130731
0.000129485
0.000128239
0.000126993
0.000125747
0.000124501
0.000123255
0.00012201
0.000120764
0.000119519
0.000118273
0.000117028
0.000115783
0.000114537
0.000113292
0.000112048
0.000110803
0.000109561
0.000108316
0.000107068
0.000105813
0.000104508
0.00010329
0.000102127
0.000100875
9.98604e-05
9.87272e-05
9.72521e-05
9.59881e-05
9.46619e-05
9.34373e-05
9.21841e-05
9.09498e-05
8.97102e-05
8.84703e-05
8.72386e-05
8.5984e-05
8.47759e-05
8.34015e-05
8.23008e-05
8.0032e-05
7.94447e-05
7.36178e-05
7.76843e-05
7.55889e-05
7.48619e-05
7.35409e-05
7.23707e-05
7.11237e-05
6.98968e-05
6.86575e-05
6.74217e-05
6.61837e-05
6.49467e-05
6.37099e-05
6.24738e-05
6.1238e-05
6.00026e-05
5.87675e-05
5.75332e-05
5.62998e-05
5.50673e-05
5.38355e-05
5.26042e-05
5.13737e-05
5.01442e-05
4.8916e-05
4.76889e-05
4.64628e-05
4.52379e-05
4.40146e-05
4.27927e-05
4.15725e-05
4.03539e-05
3.91372e-05
3.7923e-05
3.67111e-05
3.55017e-05
3.4295e-05
3.30914e-05
3.18913e-05
3.06955e-05
2.95041e-05
2.83174e-05
2.71363e-05
2.59617e-05
2.47944e-05
2.36354e-05
2.24864e-05
2.13484e-05
2.02239e-05
1.91144e-05
1.80226e-05
1.69537e-05
1.59085e-05
1.48955e-05
1.39129e-05
1.29805e-05
1.20944e-05
1.126e-05
1.05141e-05
9.92621e-06
9.50134e-06
9.45453e-06
8.78451e-06
0.000211879
0.000246106
0.000255042
0.000254446
0.000252268
0.000249666
0.000247602
0.000245651
0.000243923
0.000242238
0.000240607
0.000238986
0.000237375
0.000235764
0.000234154
0.000232533
0.000230913
0.000229262
0.000227622
0.000226048
0.000224451
0.000222838
0.000221229
0.000219615
0.000218005
0.000216396
0.000214787
0.000213179
0.000211571
0.000209963
0.000208355
0.000206747
0.00020514
0.000203533
0.000201925
0.00020032
0.000198714
0.000197114
0.000195508
0.00019391
0.000192295
0.0001906
0.000188947
0.000187189
0.000185567
0.000184057
0.000182486
0.000180965
0.000179352
0.000177762
0.000176149
0.000174545
0.000172935
0.000171329
0.000169721
0.000168114
0.000166507
0.0001649
0.000163294
0.000161687
0.00016008
0.000158474
0.000156867
0.000155261
0.000153655
0.000152048
0.000150442
0.000148836
0.000147229
0.000145623
0.000144017
0.000142412
0.000140808
0.000139201
0.000137593
0.000135979
0.000134343
0.000132757
0.000131237
0.00012967
0.000128175
0.000126581
0.000124909
0.00012328
0.000121614
0.000120012
0.000118395
0.000116793
0.000115188
0.000113582
0.000111984
0.000110365
0.000108775
0.000107081
0.000105441
0.000103588
0.000101929
0.000101441
9.97612e-05
9.75406e-05
9.60647e-05
9.43627e-05
9.27931e-05
9.1177e-05
8.95821e-05
8.79772e-05
8.63764e-05
8.47735e-05
8.31717e-05
8.157e-05
7.99688e-05
7.83676e-05
7.67666e-05
7.51658e-05
7.35655e-05
7.19658e-05
7.03665e-05
6.87676e-05
6.71689e-05
6.55707e-05
6.39732e-05
6.23764e-05
6.07803e-05
5.91846e-05
5.75897e-05
5.5996e-05
5.44028e-05
5.28105e-05
5.12193e-05
4.96292e-05
4.80407e-05
4.64535e-05
4.48675e-05
4.32833e-05
4.1701e-05
4.01207e-05
3.85428e-05
3.69678e-05
3.53956e-05
3.38268e-05
3.22619e-05
3.07015e-05
2.91464e-05
2.7598e-05
2.60563e-05
2.45231e-05
2.30003e-05
2.14896e-05
1.99949e-05
1.85168e-05
1.70633e-05
1.56329e-05
1.42444e-05
1.28842e-05
1.15615e-05
1.03141e-05
9.18945e-06
8.2922e-06
8.11913e-06
8.27748e-06
0.000272132
0.000304255
0.000310035
0.000308384
0.000306237
0.000303533
0.000301411
0.000299238
0.000297241
0.000295235
0.000293268
0.000291297
0.000289333
0.000287365
0.000285395
0.000283416
0.000281437
0.00027944
0.000277454
0.000275514
0.000273562
0.0002716
0.000269641
0.000267677
0.000265715
0.000263753
0.000261792
0.00025983
0.000257869
0.000255908
0.000253946
0.000251985
0.000250024
0.000248063
0.000246101
0.00024414
0.000242177
0.000240217
0.00023825
0.00023628
0.000234304
0.000232242
0.000230302
0.000228377
0.000226285
0.000224311
0.000222412
0.000220506
0.000218553
0.000216611
0.000214651
0.000212696
0.000210735
0.000208776
0.000206816
0.000204856
0.000202895
0.000200935
0.000198975
0.000197014
0.000195054
0.000193094
0.000191134
0.000189173
0.000187213
0.000185253
0.000183293
0.000181333
0.000179372
0.000177412
0.000175453
0.000173493
0.000171534
0.000169574
0.000167613
0.000165651
0.000163682
0.000161745
0.000159875
0.000157912
0.000155938
0.000154071
0.000152123
0.000150123
0.000148125
0.00014616
0.000144188
0.000142227
0.000140264
0.000138301
0.000136342
0.000134367
0.000132412
0.000130393
0.000128423
0.000126433
0.000124479
0.00012287
0.000120956
0.000118837
0.00011688
0.000114857
0.000112917
0.000110945
0.000108991
0.000107029
0.000105072
0.000103113
0.000101155
9.91964e-05
9.72386e-05
9.52807e-05
9.33229e-05
9.13652e-05
8.94078e-05
8.74507e-05
8.54938e-05
8.3537e-05
8.15803e-05
7.96239e-05
7.76679e-05
7.57122e-05
7.37569e-05
7.18018e-05
6.9847e-05
6.7893e-05
6.59392e-05
6.39857e-05
6.20329e-05
6.00807e-05
5.81294e-05
5.61785e-05
5.42282e-05
5.22789e-05
5.03307e-05
4.83833e-05
4.6437e-05
4.44925e-05
4.25493e-05
4.06077e-05
3.86682e-05
3.67311e-05
3.47968e-05
3.2866e-05
3.09384e-05
2.90152e-05
2.70981e-05
2.5187e-05
2.32849e-05
2.13919e-05
1.95143e-05
1.76481e-05
1.58131e-05
1.39898e-05
1.21917e-05
1.04183e-05
8.70235e-06
7.16088e-06
6.51096e-06
7.37939e-06
0.000345084
0.000363091
0.00036546
0.00036291
0.000361652
0.00035916
0.000357122
0.000354768
0.000352507
0.000350173
0.000347856
0.000345524
0.000343193
0.000340855
0.000338514
0.000336162
0.00033381
0.000331449
0.0003291
0.000326789
0.000324471
0.000322149
0.000319827
0.0003175
0.000315174
0.000312847
0.00031052
0.000308193
0.000305866
0.000303539
0.000301211
0.000298884
0.000296557
0.000294229
0.000291901
0.000289572
0.00028724
0.000284907
0.000282568
0.00028022
0.000277874
0.000275476
0.000273155
0.00027089
0.000268502
0.00026611
0.000263811
0.000261518
0.000259204
0.000256899
0.000254578
0.00025226
0.000249935
0.000247611
0.000245285
0.000242959
0.000240633
0.000238307
0.00023598
0.000233654
0.000231328
0.000229002
0.000226675
0.000224349
0.000222023
0.000219696
0.00021737
0.000215044
0.000212717
0.000210391
0.000208065
0.000205739
0.000203413
0.000201087
0.000198761
0.000196437
0.000194114
0.000191813
0.000189555
0.000187239
0.000184884
0.000182607
0.00018033
0.000177988
0.000175639
0.000173304
0.000170963
0.000168631
0.000166299
0.000163967
0.000161638
0.000159296
0.000156969
0.000154611
0.000152265
0.000149993
0.000147768
0.000145545
0.000143183
0.000140849
0.000138525
0.000136156
0.000133837
0.000131495
0.000129171
0.000126841
0.000124515
0.000122188
0.000119862
0.000117536
0.000115211
0.000112885
0.000110559
0.000108233
0.000105908
0.000103582
0.000101257
9.89316e-05
9.66061e-05
9.42808e-05
9.19559e-05
8.96309e-05
8.73061e-05
8.49813e-05
8.26567e-05
8.03326e-05
7.80085e-05
7.56844e-05
7.33605e-05
7.10371e-05
6.87139e-05
6.63909e-05
6.40681e-05
6.17455e-05
5.94234e-05
5.71017e-05
5.47803e-05
5.24596e-05
5.01394e-05
4.78196e-05
4.55009e-05
4.31833e-05
4.08663e-05
3.85508e-05
3.62365e-05
3.39235e-05
3.16131e-05
2.93049e-05
2.70002e-05
2.46984e-05
2.24047e-05
2.01127e-05
1.78452e-05
1.55653e-05
1.33341e-05
1.11566e-05
8.90703e-06
6.69825e-06
5.1653e-06
5.9533e-06
0.000428148
0.00040853
0.000415471
0.000412529
0.000413189
0.000411045
0.000409156
0.000406628
0.00040411
0.000401462
0.000398816
0.000396143
0.00039347
0.000390787
0.000388099
0.0003854
0.000382699
0.000379991
0.000377301
0.000374648
0.000371994
0.000369335
0.000366675
0.000364009
0.000361343
0.000358675
0.000356007
0.000353339
0.000350671
0.000348003
0.000345334
0.000342665
0.000339997
0.000337328
0.000334657
0.000331986
0.00032931
0.000326632
0.000323943
0.000321243
0.000318549
0.000315811
0.000313204
0.000310652
0.000307882
0.000305103
0.000302449
0.000299809
0.000297159
0.000294517
0.000291858