/*--------------------------------*- C++ -*----------------------------------*\
| =========                 |                                                 |
| \\      /  F ield         | foam-extend: Open Source CFD                    |
|  \\    /   O peration     | Version:     4.0                                |
|   \\  /    A nd           | Web:         http://www.foam-extend.org         |
|    \\/     M anipulation  |                                                 |
\*---------------------------------------------------------------------------*/
FoamFile
{
    version     2.0;
    format      ascii;
    class       pointVectorField;
    location    "1";
    object      pointD;
}
// * * * * * * * * * * * * * * * * * * * * * * * * * * * * * * * * * * * * * //

dimensions      [0 1 0 0 0 0 0];

internalField   nonuniform List<vector> 
5474
(
(-1.02004e-06 -6.88663e-07 -3.9797e-21)
(-7.33083e-06 -4.74867e-06 -7.67259e-21)
(-1.34284e-05 -7.88056e-06 -9.7865e-21)
(-1.99387e-05 -1.23307e-05 2.34697e-20)
(-2.64423e-05 -1.82911e-05 2.45012e-20)
(-3.2971e-05 -2.58595e-05 -2.9194e-20)
(-3.94701e-05 -3.50502e-05 -2.04415e-20)
(-4.59403e-05 -4.58634e-05 3.53204e-23)
(-5.23707e-05 -5.82901e-05 -3.50817e-23)
(-5.87611e-05 -7.23205e-05 3.67921e-23)
(-6.51096e-05 -8.79438e-05 -4.78031e-20)
(-7.14164e-05 -0.000105149 -3.39812e-20)
(-7.76808e-05 -0.000123926 7.01718e-20)
(-8.39035e-05 -0.000144264 8.08032e-20)
(-9.00836e-05 -0.000166152 -4.44011e-21)
(-9.62225e-05 -0.00018958 4.39334e-21)
(-0.000102318 -0.000214538 7.58856e-20)
(-0.000108368 -0.000241012 -1.92258e-20)
(-0.000114378 -0.000268982 -7.26348e-20)
(-0.000120337 -0.000298458 2.65638e-20)
(-0.000126252 -0.000329434 -7.62733e-20)
(-0.00013213 -0.000361879 -2.29585e-19)
(-0.000137966 -0.000395783 -6.44352e-20)
(-0.000143765 -0.000431142 1.66815e-19)
(-0.00014952 -0.000467945 1.52196e-19)
(-0.000155235 -0.000506182 -1.58014e-21)
(-0.000160906 -0.000545843 -1.91299e-19)
(-0.000166536 -0.000586916 -8.29337e-20)
(-0.000172123 -0.000629391 1.42257e-19)
(-0.000177669 -0.000673258 8.75897e-20)
(-0.000183172 -0.000718506 6.86139e-20)
(-0.000188632 -0.000765124 1.04376e-20)
(-0.000194051 -0.000813103 -4.3795e-20)
(-0.000199427 -0.000862431 1.17437e-20)
(-0.000204762 -0.000913097 7.40459e-20)
(-0.000210054 -0.000965092 1.92322e-19)
(-0.000215304 -0.0010184 -2.6312e-20)
(-0.000220511 -0.00107302 -2.11429e-19)
(-0.000225677 -0.00112894 -2.13144e-20)
(-0.000230801 -0.00118614 -1.19359e-19)
(-0.000235882 -0.00124462 -1.75546e-19)
(-0.000240921 -0.00130437 -1.11052e-20)
(-0.000245918 -0.00136536 1.25459e-19)
(-0.000250871 -0.00142761 2.289e-19)
(-0.000255781 -0.00149108 -6.95516e-20)
(-0.00026065 -0.00155577 -1.6262e-19)
(-0.000265478 -0.00162168 2.74541e-20)
(-0.000270263 -0.00168879 1.00907e-19)
(-0.000275006 -0.00175709 2.0612e-19)
(-0.000279707 -0.00182657 -8.03903e-20)
(-0.000284365 -0.00189722 -1.81924e-19)
(-0.00028898 -0.00196903 1.81964e-20)
(-0.000293554 -0.00204199 1.00204e-19)
(-0.000298085 -0.00211608 2.2738e-19)
(-0.000302574 -0.00219131 -8.07088e-20)
(-0.000307021 -0.00226765 -1.12378e-19)
(-0.000311425 -0.00234509 9.95208e-20)
(-0.000315787 -0.00242364 1.32736e-20)
(-0.000320108 -0.00250326 1.32736e-20)
(-0.000324386 -0.00258397 5.57759e-21)
(-0.000328621 -0.00266573 1.43509e-19)
(-0.000332815 -0.00274855 4.4819e-20)
(-0.000336966 -0.00283242 9.54051e-20)
(-0.000341076 -0.00291731 1.84947e-19)
(-0.000345143 -0.00300323 -1.96603e-19)
(-0.000349168 -0.00309016 -9.19089e-20)
(-0.00035315 -0.00317809 -4.35078e-20)
(-0.000357091 -0.00326702 -3.1128e-20)
(-0.000360989 -0.00335692 2.64841e-19)
(-0.000364845 -0.00344779 -5.25747e-20)
(-0.000368659 -0.00353962 -2.00601e-19)
(-0.000372431 -0.0036324 -4.21666e-20)
(-0.00037616 -0.00372611 1.69535e-19)
(-0.000379848 -0.00382075 2.11815e-19)
(-0.00038349 -0.00391631 -3.76464e-19)
(-0.00038709 -0.00401277 -9.21359e-20)
(-0.000390645 -0.00411013 2.78043e-19)
(-0.000394158 -0.00420837 -1.05507e-19)
(-0.000397635 -0.0043075 6.40911e-20)
(-0.000401068 -0.00440748 5.15779e-20)
(-0.000404462 -0.00450831 -1.71378e-19)
(-0.000407815 -0.00460999 -2.79723e-19)
(-0.000411124 -0.00471251 -2.14673e-19)
(-0.000414391 -0.00481584 2.44109e-19)
(-0.000417616 -0.00491999 2.93765e-19)
(-0.000420798 -0.00502493 -4.38654e-22)
(-0.000423938 -0.00513067 -2.91141e-19)
(-0.000427037 -0.00523719 -2.24394e-19)
(-0.000430093 -0.00534447 2.51935e-19)
(-0.000433108 -0.00545252 4.25069e-19)
(-0.00043608 -0.00556131 1.17807e-19)
(-0.00043901 -0.00567084 -4.2682e-19)
(-0.000441898 -0.0057811 -2.94343e-19)
(-0.000444744 -0.00589207 2.57556e-19)
(-0.000447548 -0.00600375 1.27283e-19)
(-0.00045031 -0.00611613 -5.75906e-20)
(-0.000453029 -0.00622919 7.02458e-20)
(-0.000455707 -0.00634293 6.89783e-20)
(-0.000458343 -0.00645733 5.72903e-21)
(-0.000460936 -0.00657239 6.76428e-20)
(-0.000463488 -0.00668808 6.42275e-20)
(-0.000465997 -0.00680441 -6.27582e-20)
(-0.000468464 -0.00692137 -1.22699e-19)
(-0.000470889 -0.00703893 -5.68034e-20)
(-0.000473272 -0.0071571 7.00902e-20)
(-0.000475613 -0.00727585 1.33199e-19)
(-0.000477912 -0.00739519 -1.31461e-19)
(-0.000480168 -0.00751509 -1.92849e-19)
(-0.000482383 -0.00763556 1.41121e-19)
(-0.000484555 -0.00775657 -6.33617e-20)
(-0.000486685 -0.00787812 -1.96875e-19)
(-0.000488772 -0.0080002 -1.98724e-19)
(-0.000490818 -0.00812279 -1.24343e-19)
(-0.000492821 -0.00824589 4.21909e-19)
(-0.000494782 -0.00836949 3.47306e-19)
(-0.000496701 -0.00849357 4.17431e-21)
(-0.000498578 -0.00861812 -2.73544e-19)
(-0.000500413 -0.00874314 -6.15107e-20)
(-0.000502205 -0.00886861 4.94814e-19)
(-0.000503955 -0.00899453 1.40855e-19)
(-0.000505663 -0.00912087 -1.38816e-19)
(-0.000507329 -0.00924764 1.42665e-19)
(-0.000508953 -0.00937482 1.41203e-19)
(-0.000510534 -0.0095024 -1.4073e-19)
(-0.000512073 -0.00963038 -3.54483e-19)
(-0.00051357 -0.00975873 -2.83294e-19)
(-0.000515025 -0.00988745 2.90595e-19)
(-0.000516438 -0.0100165 2.16439e-19)
(-0.000517808 -0.0101459 -2.83686e-19)
(-0.000519136 -0.0102757 7.77896e-20)
(-0.000520422 -0.0104058 3.62564e-19)
(-0.000521666 -0.0105362 -7.29014e-20)
(-0.000522868 -0.0106669 -3.60593e-19)
(-0.000524028 -0.0107979 3.84154e-21)
(-0.000525145 -0.0109292 2.92349e-19)
(-0.00052622 -0.0110608 2.17875e-19)
(-0.000527253 -0.0111926 -5.14306e-19)
(-0.000528244 -0.0113247 -6.55875e-19)
(-0.000529192 -0.011457 2.9983e-19)
(-0.000530099 -0.0115896 4.4397e-19)
(-0.000530963 -0.0117224 1.49394e-19)
(-0.000531785 -0.0118553 7.5232e-20)
(-0.000532565 -0.0119885 1.97969e-21)
(-0.000533302 -0.0121219 -7.22361e-20)
(-0.000533998 -0.0122555 -2.9595e-19)
(-0.000534651 -0.0123892 -2.20542e-19)
(-0.000535262 -0.0125231 1.51936e-19)
(-0.000535831 -0.0126571 2.25233e-19)
(-0.000536358 -0.0127913 1.50151e-19)
(-0.000536843 -0.0129256 7.49765e-20)
(-0.000537285 -0.01306 -2.24022e-19)
(-0.000537685 -0.0131945 -7.34679e-20)
(-0.000538044 -0.0133291 1.5097e-19)
(-0.00053836 -0.0134638 -1.48851e-19)
(-0.000538634 -0.0135986 7.5484e-20)
(-0.000538867 -0.0137334 2.24751e-19)
(-0.000539059 -0.0138683 -4.49418e-19)
(-0.000539214 -0.0140032 -4.48914e-19)
(-0.000539334 -0.0141382 3.75271e-19)
(-0.000539439 -0.0142732 7.49883e-19)
(-0.000539498 -0.0144084 1.34974e-18)
(-4.87161e-22 -2.88838e-22 0)
(-5.83544e-06 -3.48681e-06 0)
(-1.15563e-05 -6.59107e-06 0)
(-1.7332e-05 -1.10355e-05 0)
(-2.30609e-05 -1.69995e-05 0)
(-2.87863e-05 -2.45709e-05 0)
(-3.44777e-05 -3.37681e-05 0)
(-4.01405e-05 -4.45883e-05 0)
(-4.57674e-05 -5.70229e-05 0)
(-5.13591e-05 -7.10614e-05 0)
(-5.6914e-05 -8.6693e-05 0)
(-6.24324e-05 -0.000103907 0)
(-6.79138e-05 -0.000122692 0)
(-7.33586e-05 -0.000143038 0)
(-7.87662e-05 -0.000164935 0)
(-8.41378e-05 -0.000188371 0)
(-8.94718e-05 -0.000213338 0)
(-9.47694e-05 -0.00023982 0)
(-0.000100032 -0.000267798 0)
(-0.000105238 -0.000297284 0)
(-0.000110408 -0.000328269 0)
(-0.000115555 -0.000360721 0)
(-0.000120662 -0.000394633 0)
(-0.000125736 -0.00043 0)
(-0.000130772 -0.000466811 0)
(-0.000135772 -0.000505057 0)
(-0.000140735 -0.000544726 0)
(-0.000145661 -0.000585807 0)
(-0.000150549 -0.000628291 0)
(-0.000155402 -0.000672166 0)
(-0.000160217 -0.000717422 0)
(-0.000164995 -0.000764049 0)
(-0.000169736 -0.000812036 0)
(-0.000174441 -0.000861372 0)
(-0.000179108 -0.000912047 0)
(-0.000183739 -0.00096405 0)
(-0.000188332 -0.00101737 0)
(-0.000192889 -0.001072 0)
(-0.000197409 -0.00112792 0)
(-0.000201892 -0.00118514 0)
(-0.000206338 -0.00124362 0)
(-0.000210747 -0.00130337 0)
(-0.000215119 -0.00136438 0)
(-0.000219454 -0.00142663 0)
(-0.000223751 -0.00149011 0)
(-0.000228012 -0.00155481 0)
(-0.000232236 -0.00162073 0)
(-0.000236423 -0.00168785 0)
(-0.000240573 -0.00175615 0)
(-0.000244686 -0.00182564 0)
(-0.000248762 -0.0018963 0)
(-0.0002528 -0.00196812 0)
(-0.000256802 -0.00204109 0)
(-0.000260767 -0.00211519 0)
(-0.000264695 -0.00219042 0)
(-0.000268585 -0.00226677 0)
(-0.000272439 -0.00234423 0)
(-0.000276256 -0.00242278 0)
(-0.000280037 -0.00250241 0)
(-0.00028378 -0.00258312 0)
(-0.000287486 -0.0026649 0)
(-0.000291156 -0.00274773 0)
(-0.000294788 -0.0028316 0)
(-0.000298384 -0.00291651 0)
(-0.000301942 -0.00300243 0)
(-0.000305464 -0.00308937 0)
(-0.000308949 -0.00317731 0)
(-0.000312397 -0.00326624 0)
(-0.000315808 -0.00335615 0)
(-0.000319182 -0.00344703 0)
(-0.000322519 -0.00353887 0)
(-0.00032582 -0.00363165 0)
(-0.000329083 -0.00372538 0)
(-0.000332309 -0.00382003 0)
(-0.000335497 -0.0039156 0)
(-0.000338649 -0.00401207 0)
(-0.000341756 -0.00410943 0)
(-0.000344825 -0.00420768 0)
(-0.000347869 -0.00430681 0)
(-0.000350876 -0.0044068 0)
(-0.000353845 -0.00450765 0)
(-0.000356779 -0.00460933 0)
(-0.000359674 -0.00471186 0)
(-0.000362533 -0.0048152 0)
(-0.000365354 -0.00491935 0)
(-0.000368139 -0.00502431 0)
(-0.000370887 -0.00513005 0)
(-0.000373598 -0.00523658 0)
(-0.000376272 -0.00534387 0)
(-0.00037891 -0.00545192 0)
(-0.00038151 -0.00556073 0)
(-0.000384074 -0.00567026 0)
(-0.000386601 -0.00578053 0)
(-0.000389092 -0.00589151 0)
(-0.000391545 -0.0060032 0)
(-0.000393962 -0.00611559 0)
(-0.000396341 -0.00622866 0)
(-0.000398684 -0.00634241 0)
(-0.00040099 -0.00645681 0)
(-0.00040326 -0.00657188 0)
(-0.000405492 -0.00668758 0)
(-0.000407688 -0.00680392 0)
(-0.000409847 -0.00692088 0)
(-0.000411969 -0.00703846 0)
(-0.000414054 -0.00715663 0)
(-0.000416102 -0.00727539 0)
(-0.000418113 -0.00739474 0)
(-0.000420088 -0.00751465 0)
(-0.000422025 -0.00763512 0)
(-0.000423926 -0.00775614 0)
(-0.00042579 -0.0078777 0)
(-0.000427616 -0.00799979 0)
(-0.000429406 -0.00812239 0)
(-0.000431159 -0.0082455 0)
(-0.000432875 -0.0083691 0)
(-0.000434554 -0.00849319 0)
(-0.000436196 -0.00861775 0)
(-0.000437802 -0.00874278 0)
(-0.00043937 -0.00886826 0)
(-0.000440901 -0.00899419 0)
(-0.000442396 -0.00912054 0)
(-0.000443853 -0.00924732 0)
(-0.000445274 -0.00937451 0)
(-0.000446658 -0.0095021 0)
(-0.000448004 -0.00963008 0)
(-0.000449314 -0.00975843 0)
(-0.000450587 -0.00988716 0)
(-0.000451823 -0.0100162 0)
(-0.000453023 -0.0101457 0)
(-0.000454185 -0.0102755 0)
(-0.00045531 -0.0104056 0)
(-0.000456398 -0.010536 0)
(-0.00045745 -0.0106667 0)
(-0.000458465 -0.0107977 0)
(-0.000459442 -0.010929 0)
(-0.000460383 -0.0110606 0)
(-0.000461287 -0.0111924 0)
(-0.000462154 -0.0113245 0)
(-0.000462984 -0.0114568 0)
(-0.000463777 -0.0115894 0)
(-0.000464533 -0.0117222 0)
(-0.000465252 -0.0118552 0)
(-0.000465935 -0.0119884 0)
(-0.00046658 -0.0121218 0)
(-0.000467189 -0.0122553 0)
(-0.00046776 -0.0123891 0)
(-0.000468295 -0.012523 0)
(-0.000468793 -0.012657 0)
(-0.000469254 -0.0127912 0)
(-0.000469678 -0.0129255 0)
(-0.000470065 -0.0130599 0)
(-0.000470415 -0.0131944 0)
(-0.000470729 -0.013329 0)
(-0.000471005 -0.0134638 0)
(-0.000471245 -0.0135985 0)
(-0.000471449 -0.0137334 0)
(-0.000471616 -0.0138683 0)
(-0.000471748 -0.0140032 0)
(-0.000471846 -0.0141382 0)
(-0.000471914 -0.0142732 0)
(-0.000471948 -0.0144083 1.19918e-18)
(2.11758e-22 1.05879e-22 0)
(-4.76226e-06 -2.46799e-06 0)
(-9.74501e-06 -5.44772e-06 0)
(-1.47418e-05 -9.87727e-06 0)
(-1.96921e-05 -1.58439e-05 0)
(-2.46175e-05 -2.34214e-05 0)
(-2.95048e-05 -3.26261e-05 0)
(-3.43623e-05 -4.34536e-05 0)
(-3.91869e-05 -5.58958e-05 0)
(-4.39804e-05 -6.99417e-05 0)
(-4.87419e-05 -8.55807e-05 0)
(-5.3472e-05 -0.000102802 0)
(-5.81703e-05 -0.000121595 0)
(-6.28373e-05 -0.000141948 0)
(-6.74724e-05 -0.000163852 0)
(-7.20773e-05 -0.000187295 0)
(-7.66495e-05 -0.000212269 0)
(-8.11995e-05 -0.000238758 0)
(-8.57079e-05 -0.000266749 0)
(-9.01483e-05 -0.000296245 0)
(-9.45797e-05 -0.000327233 0)
(-9.90009e-05 -0.00035969 0)
(-0.00010338 -0.00039361 0)
(-0.00010773 -0.000428984 0)
(-0.000112047 -0.000465803 0)
(-0.000116333 -0.000504056 0)
(-0.000120586 -0.000543732 0)
(-0.000124809 -0.000584821 0)
(-0.000128999 -0.000627312 0)
(-0.000133158 -0.000671195 0)
(-0.000137285 -0.000716459 0)
(-0.000141381 -0.000763093 0)
(-0.000145445 -0.000811087 0)
(-0.000149477 -0.000860431 0)
(-0.000153478 -0.000911113 0)
(-0.000157447 -0.000963124 0)
(-0.000161384 -0.00101645 0)
(-0.00016529 -0.00107109 0)
(-0.000169164 -0.00112702 0)
(-0.000173007 -0.00118424 0)
(-0.000176818 -0.00124273 0)
(-0.000180598 -0.00130249 0)
(-0.000184345 -0.00136351 0)
(-0.000188061 -0.00142576 0)
(-0.000191744 -0.00148925 0)
(-0.000195397 -0.00155396 0)
(-0.000199017 -0.00161988 0)
(-0.000202606 -0.00168701 0)
(-0.000206164 -0.00175532 0)
(-0.000209689 -0.00182482 0)
(-0.000213182 -0.00189549 0)
(-0.000216644 -0.00196731 0)
(-0.000220074 -0.00204029 0)
(-0.000223472 -0.0021144 0)
(-0.000226839 -0.00218964 0)
(-0.000230174 -0.00226599 0)
(-0.000233477 -0.00234346 0)
(-0.000236749 -0.00242201 0)
(-0.000239989 -0.00250166 0)
(-0.000243198 -0.00258238 0)
(-0.000246375 -0.00266416 0)
(-0.00024952 -0.002747 0)
(-0.000252633 -0.00283088 0)
(-0.000255715 -0.00291579 0)
(-0.000258765 -0.00300172 0)
(-0.000261784 -0.00308867 0)
(-0.000264771 -0.00317661 0)
(-0.000267727 -0.00326555 0)
(-0.00027065 -0.00335547 0)
(-0.000273542 -0.00344636 0)
(-0.000276403 -0.0035382 0)
(-0.000279232 -0.00363099 0)
(-0.000282029 -0.00372473 0)
(-0.000284795 -0.00381938 0)
(-0.000287528 -0.00391496 0)
(-0.000290236 -0.00401144 0)
(-0.000292899 -0.00410881 0)
(-0.000295516 -0.00420707 0)
(-0.000298124 -0.00430621 0)
(-0.000300706 -0.0044062 0)
(-0.000303252 -0.00450705 0)
(-0.000305766 -0.00460875 0)
(-0.000308248 -0.00471128 0)
(-0.000310698 -0.00481463 0)
(-0.000313116 -0.00491879 0)
(-0.000315503 -0.00502375 0)
(-0.000317859 -0.0051295 0)
(-0.000320183 -0.00523604 0)
(-0.000322475 -0.00534334 0)
(-0.000324736 -0.0054514 0)
(-0.000326965 -0.00556021 0)
(-0.000329162 -0.00566975 0)
(-0.000331328 -0.00578003 0)
(-0.000333463 -0.00589102 0)
(-0.000335566 -0.00600271 0)
(-0.000337637 -0.00611511 0)
(-0.000339677 -0.00622819 0)
(-0.000341685 -0.00634194 0)
(-0.000343662 -0.00645635 0)
(-0.000345607 -0.00657143 0)
(-0.000347521 -0.00668714 0)
(-0.000349403 -0.00680349 0)
(-0.000351253 -0.00692045 0)
(-0.000353072 -0.00703803 0)
(-0.000354859 -0.00715621 0)
(-0.000356615 -0.00727499 0)
(-0.000358339 -0.00739434 0)
(-0.000360031 -0.00751426 0)
(-0.000361692 -0.00763474 0)
(-0.000363321 -0.00775577 0)
(-0.000364918 -0.00787733 0)
(-0.000366484 -0.00799942 0)
(-0.000368018 -0.00812203 0)
(-0.000369521 -0.00824515 0)
(-0.000370991 -0.00836876 0)
(-0.000372431 -0.00849286 0)
(-0.000373838 -0.00861743 0)
(-0.000375214 -0.00874246 0)
(-0.000376558 -0.00886795 0)
(-0.000377871 -0.00899388 0)
(-0.000379152 -0.00912024 0)
(-0.000380401 -0.00924703 0)
(-0.000381619 -0.00937423 0)
(-0.000382805 -0.00950182 0)
(-0.000383959 -0.00962981 0)
(-0.000385082 -0.00975817 0)
(-0.000386173 -0.00988691 0)
(-0.000387233 -0.010016 0)
(-0.000388261 -0.0101454 0)
(-0.000389257 -0.0102752 0)
(-0.000390221 -0.0104053 0)
(-0.000391154 -0.0105358 0)
(-0.000392056 -0.0106665 0)
(-0.000392925 -0.0107975 0)
(-0.000393763 -0.0109288 0)
(-0.00039457 -0.0110604 0)
(-0.000395344 -0.0111922 0)
(-0.000396087 -0.0113243 0)
(-0.000396799 -0.0114567 0)
(-0.000397479 -0.0115892 0)
(-0.000398127 -0.011722 0)
(-0.000398743 -0.011855 0)
(-0.000399328 -0.0119883 0)
(-0.000399881 -0.0121216 0)
(-0.000400403 -0.0122552 0)
(-0.000400893 -0.012389 0)
(-0.000401351 -0.0125229 0)
(-0.000401778 -0.0126569 0)
(-0.000402173 -0.0127911 0)
(-0.000402536 -0.0129254 0)
(-0.000402868 -0.0130598 0)
(-0.000403168 -0.0131944 0)
(-0.000403437 -0.013329 0)
(-0.000403674 -0.0134637 0)
(-0.00040388 -0.0135985 0)
(-0.000404053 -0.0137333 0)
(-0.000404195 -0.0138682 0)
(-0.000404305 -0.0140032 0)
(-0.000404382 -0.0141382 0)
(-0.000404428 -0.0142732 0)
(-0.000404452 -0.0144083 -1.19756e-18)
(-3.17637e-22 -1.58819e-22 0)
(-3.85205e-06 -1.70484e-06 0)
(-8.00309e-06 -4.51209e-06 0)
(-1.21951e-05 -8.9075e-06 0)
(-1.63485e-05 -1.48735e-05 0)
(-2.04689e-05 -2.2459e-05 0)
(-2.45505e-05 -3.1672e-05 0)
(-2.86026e-05 -4.2507e-05 0)
(-3.2625e-05 -5.49561e-05 0)
(-3.66203e-05 -6.90085e-05 0)
(-4.05885e-05 -8.46539e-05 0)
(-4.45304e-05 -0.000101881 0)
(-4.84456e-05 -0.00012068 0)
(-5.23347e-05 -0.00014104 0)
(-5.61971e-05 -0.00016295 0)
(-6.00345e-05 -0.000186399 0)
(-6.38434e-05 -0.000211377 0)
(-6.76359e-05 -0.000237874 0)
(-7.13812e-05 -0.000265881 0)
(-7.50761e-05 -0.000295383 0)
(-7.87794e-05 -0.000326368 0)
(-8.24667e-05 -0.00035883 0)
(-8.61177e-05 -0.000392757 0)
(-8.97433e-05 -0.000428138 0)
(-9.33409e-05 -0.000464963 0)
(-9.69124e-05 -0.000503222 0)
(-0.000100457 -0.000542905 0)
(-0.000103976 -0.000584 0)
(-0.000107468 -0.000626497 0)
(-0.000110934 -0.000670386 0)
(-0.000114373 -0.000715656 0)
(-0.000117786 -0.000762296 0)
(-0.000121173 -0.000810297 0)
(-0.000124533 -0.000859646 0)
(-0.000127867 -0.000910335 0)
(-0.000131174 -0.000962352 0)
(-0.000134455 -0.00101569 0)
(-0.00013771 -0.00107033 0)
(-0.000140939 -0.00112627 0)
(-0.000144141 -0.00118349 0)
(-0.000147317 -0.00124199 0)
(-0.000150467 -0.00130176 0)
(-0.00015359 -0.00136278 0)
(-0.000156687 -0.00142504 0)
(-0.000159757 -0.00148854 0)
(-0.0001628 -0.00155325 0)
(-0.000165818 -0.00161918 0)
(-0.000168809 -0.00168631 0)
(-0.000171773 -0.00175463 0)
(-0.000174711 -0.00182414 0)
(-0.000177622 -0.00189481 0)
(-0.000180506 -0.00196664 0)
(-0.000183365 -0.00203962 0)
(-0.000186197 -0.00211374 0)
(-0.000189002 -0.00218898 0)
(-0.000191781 -0.00226534 0)
(-0.000194534 -0.00234281 0)
(-0.000197261 -0.00242138 0)
(-0.000199961 -0.00250103 0)
(-0.000202634 -0.00258175 0)
(-0.000205282 -0.00266354 0)
(-0.000207903 -0.00274638 0)
(-0.000210497 -0.00283027 0)
(-0.000213066 -0.00291519 0)
(-0.000215608 -0.00300113 0)
(-0.000218123 -0.00308808 0)
(-0.000220612 -0.00317603 0)
(-0.000223075 -0.00326498 0)
(-0.000225511 -0.0033549 0)
(-0.000227922 -0.00344579 0)
(-0.000230305 -0.00353765 0)
(-0.000232663 -0.00363045 0)
(-0.000234994 -0.00372418 0)
(-0.000237299 -0.00381885 0)
(-0.000239578 -0.00391443 0)
(-0.000241836 -0.00401091 0)
(-0.000244061 -0.0041083 0)
(-0.000246239 -0.00420656 0)
(-0.000248405 -0.0043057 0)
(-0.000250557 -0.0044057 0)
(-0.000252678 -0.00450656 0)
(-0.000254773 -0.00460826 0)
(-0.000256841 -0.0047108 0)
(-0.000258882 -0.00481415 0)
(-0.000260898 -0.00491832 0)
(-0.000262887 -0.00502329 0)
(-0.00026485 -0.00512905 0)
(-0.000266786 -0.00523559 0)
(-0.000268696 -0.00534289 0)
(-0.00027058 -0.00545096 0)
(-0.000272438 -0.00555977 0)
(-0.000274269 -0.00566933 0)
(-0.000276074 -0.00577961 0)
(-0.000277853 -0.0058906 0)
(-0.000279605 -0.00600231 0)
(-0.000281331 -0.00611471 0)
(-0.000283031 -0.00622779 0)
(-0.000284704 -0.00634155 0)
(-0.000286352 -0.00645597 0)
(-0.000287973 -0.00657105 0)
(-0.000289568 -0.00668677 0)
(-0.000291136 -0.00680312 0)
(-0.000292678 -0.0069201 0)
(-0.000294194 -0.00703768 0)
(-0.000295683 -0.00715587 0)
(-0.000297146 -0.00727465 0)
(-0.000298583 -0.007394 0)
(-0.000299993 -0.00751393 0)
(-0.000301377 -0.00763442 0)
(-0.000302734 -0.00775545 0)
(-0.000304066 -0.00787702 0)
(-0.00030537 -0.00799912 0)
(-0.000306649 -0.00812174 0)
(-0.000307901 -0.00824486 0)
(-0.000309127 -0.00836848 0)
(-0.000310326 -0.00849258 0)
(-0.000311499 -0.00861716 0)
(-0.000312646 -0.0087422 0)
(-0.000313766 -0.00886769 0)
(-0.00031486 -0.00899363 0)
(-0.000315927 -0.00912 0)
(-0.000316968 -0.00924679 0)
(-0.000317983 -0.00937399 0)
(-0.000318971 -0.00950159 0)
(-0.000319933 -0.00962959 0)
(-0.000320869 -0.00975796 0)
(-0.000321778 -0.0098867 0)
(-0.000322661 -0.0100158 0)
(-0.000323518 -0.0101452 0)
(-0.000324348 -0.010275 0)
(-0.000325152 -0.0104051 0)
(-0.000325929 -0.0105356 0)
(-0.00032668 -0.0106663 0)
(-0.000327405 -0.0107973 0)
(-0.000328103 -0.0109286 0)
(-0.000328775 -0.0110602 0)
(-0.000329421 -0.0111921 0)
(-0.00033004 -0.0113242 0)
(-0.000330633 -0.0114565 0)
(-0.000331199 -0.0115891 0)
(-0.000331739 -0.0117219 0)
(-0.000332253 -0.0118549 0)
(-0.000332741 -0.0119881 0)
(-0.000333202 -0.0121215 0)
(-0.000333636 -0.0122551 0)
(-0.000334045 -0.0123889 0)
(-0.000334426 -0.0125228 0)
(-0.000334782 -0.0126568 0)
(-0.000335111 -0.012791 0)
(-0.000335414 -0.0129253 0)
(-0.000335691 -0.0130598 0)
(-0.000335941 -0.0131943 0)
(-0.000336164 -0.0133289 0)
(-0.000336362 -0.0134637 0)
(-0.000336533 -0.0135984 0)
(-0.000336677 -0.0137333 0)
(-0.000336794 -0.0138682 0)
(-0.000336882 -0.0140032 0)
(-0.000336942 -0.0141381 0)
(-0.000336975 -0.0142732 0)
(-0.000336995 -0.0144082 -2.09705e-18)
(1.04771e-22 4.55276e-23 0)
(-3.02147e-06 -1.12539e-06 0)
(-6.32511e-06 -3.75762e-06 0)
(-9.69295e-06 -8.10642e-06 0)
(-1.30335e-05 -1.4068e-05 0)
(-1.63418e-05 -2.16604e-05 0)
(-1.96144e-05 -3.08815e-05 0)
(-2.28597e-05 -4.17238e-05 0)
(-2.60794e-05 -5.41792e-05 0)
(-2.92764e-05 -6.82373e-05 0)
(-3.24513e-05 -8.38881e-05 0)
(-3.56048e-05 -0.000101121 0)
(-3.8737e-05 -0.000119925 0)
(-4.18482e-05 -0.00014029 0)
(-4.49378e-05 -0.000162205 0)
(-4.80069e-05 -0.000185659 0)
(-5.10528e-05 -0.000210642 0)
(-5.40796e-05 -0.000237146 0)
(-5.70728e-05 -0.000265161 0)
(-6.00421e-05 -0.000294666 0)
(-6.30078e-05 -0.000325652 0)
(-6.59516e-05 -0.000358119 0)
(-6.88727e-05 -0.000392052 0)
(-7.17729e-05 -0.000427438 0)
(-7.46511e-05 -0.000464269 0)
(-7.75083e-05 -0.000502533 0)
(-8.03442e-05 -0.000542221 0)
(-8.3159e-05 -0.000583321 0)
(-8.59527e-05 -0.000625824 0)
(-8.87253e-05 -0.000669718 0)
(-9.14767e-05 -0.000714993 0)
(-9.42071e-05 -0.000761638 0)
(-9.69164e-05 -0.000809644 0)
(-9.96046e-05 -0.000858998 0)
(-0.000102272 -0.000909692 0)
(-0.000104918 -0.000961714 0)
(-0.000107543 -0.00101505 0)
(-0.000110146 -0.0010697 0)
(-0.000112729 -0.00112564 0)
(-0.000115291 -0.00118287 0)
(-0.000117832 -0.00124138 0)
(-0.000120352 -0.00130115 0)
(-0.000122851 -0.00136218 0)
(-0.000125329 -0.00142445 0)
(-0.000127785 -0.00148795 0)
(-0.000130221 -0.00155266 0)
(-0.000132635 -0.0016186 0)
(-0.000135027 -0.00168573 0)
(-0.000137399 -0.00175406 0)
(-0.000139749 -0.00182357 0)
(-0.000142077 -0.00189425 0)
(-0.000144385 -0.00196608 0)
(-0.000146672 -0.00203907 0)
(-0.000148937 -0.00211319 0)
(-0.000151182 -0.00218844 0)
(-0.000153405 -0.00226481 0)
(-0.000155607 -0.00234228 0)
(-0.000157788 -0.00242085 0)
(-0.000159948 -0.00250051 0)
(-0.000162087 -0.00258124 0)
(-0.000164205 -0.00266303 0)
(-0.000166302 -0.00274588 0)
(-0.000168378 -0.00282977 0)
(-0.000170432 -0.00291469 0)
(-0.000172466 -0.00300064 0)
(-0.000174478 -0.0030876 0)
(-0.000176469 -0.00317556 0)
(-0.00017844 -0.0032645 0)
(-0.000180389 -0.00335443 0)
(-0.000182317 -0.00344533 0)
(-0.000184224 -0.00353719 0)
(-0.00018611 -0.00362999 0)
(-0.000187975 -0.00372373 0)
(-0.000189819 -0.0038184 0)
(-0.000191642 -0.00391399 0)
(-0.000193445 -0.00401048 0)
(-0.000195227 -0.00410787 0)
(-0.000196977 -0.00420614 0)
(-0.000198708 -0.00430528 0)
(-0.000200425 -0.00440529 0)
(-0.00020212 -0.00450615 0)
(-0.000203796 -0.00460786 0)
(-0.000205449 -0.0047104 0)
(-0.000207082 -0.00481376 0)
(-0.000208695 -0.00491793 0)
(-0.000210286 -0.00502291 0)
(-0.000211856 -0.00512867 0)
(-0.000213406 -0.00523521 0)
(-0.000214934 -0.00534253 0)
(-0.000216441 -0.0054506 0)
(-0.000217927 -0.00555942 0)
(-0.000219392 -0.00566898 0)
(-0.000220836 -0.00577926 0)
(-0.000222259 -0.00589026 0)
(-0.000223661 -0.00600197 0)
(-0.000225042 -0.00611437 0)
(-0.000226401 -0.00622746 0)
(-0.00022774 -0.00634123 0)
(-0.000229058 -0.00645566 0)
(-0.000230355 -0.00657074 0)
(-0.000231631 -0.00668646 0)
(-0.000232885 -0.00680282 0)
(-0.000234119 -0.0069198 0)
(-0.000235332 -0.00703739 0)
(-0.000236523 -0.00715558 0)
(-0.000237694 -0.00727437 0)
(-0.000238843 -0.00739373 0)
(-0.000239971 -0.00751366 0)
(-0.000241078 -0.00763415 0)
(-0.000242164 -0.00775519 0)
(-0.000243229 -0.00787677 0)
(-0.000244273 -0.00799887 0)
(-0.000245296 -0.00812149 0)
(-0.000246297 -0.00824462 0)
(-0.000247278 -0.00836824 0)
(-0.000248237 -0.00849235 0)
(-0.000249176 -0.00861693 0)
(-0.000250093 -0.00874198 0)
(-0.000250989 -0.00886748 0)
(-0.000251864 -0.00899342 0)
(-0.000252718 -0.00911979 0)
(-0.000253551 -0.00924659 0)
(-0.000254363 -0.0093738 0)
(-0.000255154 -0.0095014 0)
(-0.000255923 -0.0096294 0)
(-0.000256672 -0.00975778 0)
(-0.000257399 -0.00988653 0)
(-0.000258105 -0.0100156 0)
(-0.000258791 -0.0101451 0)
(-0.000259455 -0.0102749 0)
(-0.000260098 -0.010405 0)
(-0.00026072 -0.0105354 0)
(-0.000261321 -0.0106662 0)
(-0.0002619 -0.0107972 0)
(-0.000262459 -0.0109285 0)
(-0.000262997 -0.0110601 0)
(-0.000263513 -0.011192 0)
(-0.000264008 -0.0113241 0)
(-0.000264483 -0.0114564 0)
(-0.000264936 -0.011589 0)
(-0.000265368 -0.0117218 0)
(-0.000265779 -0.0118548 0)
(-0.000266169 -0.011988 0)
(-0.000266538 -0.0121215 0)
(-0.000266886 -0.012255 0)
(-0.000267212 -0.0123888 0)
(-0.000267518 -0.0125227 0)
(-0.000267802 -0.0126568 0)
(-0.000268066 -0.012791 0)
(-0.000268308 -0.0129253 0)
(-0.000268529 -0.0130597 0)
(-0.000268729 -0.0131943 0)
(-0.000268908 -0.0133289 0)
(-0.000269065 -0.0134636 0)
(-0.000269202 -0.0135984 0)
(-0.000269317 -0.0137333 0)
(-0.000269409 -0.0138682 0)
(-0.000269478 -0.0140031 0)
(-0.000269523 -0.0141381 0)
(-0.000269548 -0.0142732 0)
(-0.000269565 -0.0144082 8.98023e-19)
(-9.2995e-23 -1.10142e-22 0)
(-2.23539e-06 -7.09752e-07 0)
(-4.69892e-06 -3.18713e-06 0)
(-7.23147e-06 -7.48772e-06 0)
(-9.74665e-06 -1.34426e-05 0)
(-1.22354e-05 -2.10406e-05 0)
(-1.46946e-05 -3.02688e-05 0)
(-1.71312e-05 -4.11174e-05 0)
(-1.95472e-05 -5.35782e-05 0)
(-2.19455e-05 -6.76411e-05 0)
(-2.43269e-05 -8.32961e-05 0)
(-2.66921e-05 -0.000100533 0)
(-2.90412e-05 -0.000119341 0)
(-3.13744e-05 -0.00013971 0)
(-3.36913e-05 -0.000161629 0)
(-3.59927e-05 -0.000185088 0)
(-3.82765e-05 -0.000210075 0)
(-4.05447e-05 -0.000236583 0)
(-4.27925e-05 -0.000264601 0)
(-4.50225e-05 -0.000294109 0)
(-4.72437e-05 -0.0003251 0)
(-4.94498e-05 -0.000357571 0)
(-5.16404e-05 -0.000391508 0)
(-5.38154e-05 -0.000426898 0)
(-5.59741e-05 -0.000463733 0)
(-5.8117e-05 -0.000502001 0)
(-6.02439e-05 -0.000541693 0)
(-6.2355e-05 -0.000582797 0)
(-6.44502e-05 -0.000625303 0)
(-6.65296e-05 -0.000669201 0)
(-6.85932e-05 -0.00071448 0)
(-7.0641e-05 -0.000761129 0)
(-7.26729e-05 -0.000809139 0)
(-7.4689e-05 -0.000858498 0)
(-7.66893e-05 -0.000909195 0)
(-7.86738e-05 -0.000961221 0)
(-8.06424e-05 -0.00101456 0)
(-8.25952e-05 -0.00106922 0)
(-8.45322e-05 -0.00112516 0)
(-8.64535e-05 -0.0011824 0)
(-8.83591e-05 -0.00124091 0)
(-9.02496e-05 -0.00130068 0)
(-9.21247e-05 -0.00136171 0)
(-9.3984e-05 -0.00142399 0)
(-9.58269e-05 -0.00148749 0)
(-9.76537e-05 -0.00155221 0)
(-9.94648e-05 -0.00161815 0)
(-0.000101259 -0.00168529 0)
(-0.000103037 -0.00175362 0)
(-0.000104799 -0.00182313 0)
(-0.000106546 -0.00189381 0)
(-0.000108276 -0.00196565 0)
(-0.000109991 -0.00203864 0)
(-0.00011169 -0.00211277 0)
(-0.000113374 -0.00218802 0)
(-0.000115041 -0.0022644 0)
(-0.000116693 -0.00234187 0)
(-0.000118329 -0.00242045 0)
(-0.000119949 -0.00250011 0)
(-0.000121553 -0.00258084 0)
(-0.000123141 -0.00266264 0)
(-0.000124714 -0.00274549 0)
(-0.000126271 -0.00282938 0)
(-0.000127811 -0.00291431 0)
(-0.000129337 -0.00300026 0)
(-0.000130846 -0.00308722 0)
(-0.000132339 -0.00317518 0)
(-0.000133817 -0.00326414 0)
(-0.000135279 -0.00335407 0)
(-0.000136725 -0.00344497 0)
(-0.000138155 -0.00353683 0)
(-0.00013957 -0.00362964 0)
(-0.000140968 -0.00372339 0)
(-0.000142351 -0.00381806 0)
(-0.000143719 -0.00391365 0)
(-0.00014507 -0.00401014 0)
(-0.000146405 -0.00410754 0)
(-0.000147719 -0.00420581 0)
(-0.000149019 -0.00430496 0)
(-0.000150305 -0.00440497 0)
(-0.000151575 -0.00450584 0)
(-0.000152831 -0.00460755 0)
(-0.000154071 -0.00471009 0)
(-0.000155295 -0.00481346 0)
(-0.000156505 -0.00491763 0)
(-0.000157698 -0.00502261 0)
(-0.000158876 -0.00512838 0)
(-0.000160038 -0.00523493 0)
(-0.000161184 -0.00534224 0)
(-0.000162315 -0.00545032 0)
(-0.000163429 -0.00555914 0)
(-0.000164528 -0.0056687 0)
(-0.000165611 -0.00577899 0)
(-0.000166678 -0.00589 0)
(-0.000167729 -0.00600171 0)
(-0.000168765 -0.00611412 0)
(-0.000169784 -0.00622721 0)
(-0.000170788 -0.00634098 0)
(-0.000171777 -0.00645541 0)
(-0.00017275 -0.0065705 0)
(-0.000173707 -0.00668623 0)
(-0.000174648 -0.00680259 0)
(-0.000175573 -0.00691957 0)
(-0.000176482 -0.00703717 0)
(-0.000177376 -0.00715536 0)
(-0.000178254 -0.00727415 0)
(-0.000179116 -0.00739351 0)
(-0.000179962 -0.00751345 0)
(-0.000180792 -0.00763395 0)
(-0.000181607 -0.00775499 0)
(-0.000182406 -0.00787657 0)
(-0.000183188 -0.00799868 0)
(-0.000183956 -0.0081213 0)
(-0.000184707 -0.00824443 0)
(-0.000185442 -0.00836806 0)
(-0.000186162 -0.00849217 0)
(-0.000186865 -0.00861676 0)
(-0.000187553 -0.00874181 0)
(-0.000188226 -0.00886731 0)
(-0.000188882 -0.00899326 0)
(-0.000189522 -0.00911964 0)
(-0.000190147 -0.00924644 0)
(-0.000190756 -0.00937365 0)
(-0.000191349 -0.00950126 0)
(-0.000191926 -0.00962926 0)
(-0.000192487 -0.00975764 0)
(-0.000193033 -0.00988639 0)
(-0.000193563 -0.0100155 0)
(-0.000194077 -0.010145 0)
(-0.000194575 -0.0102748 0)
(-0.000195057 -0.0104049 0)
(-0.000195523 -0.0105353 0)
(-0.000195974 -0.0106661 0)
(-0.000196409 -0.0107971 0)
(-0.000196828 -0.0109284 0)
(-0.000197231 -0.01106 0)
(-0.000197618 -0.0111919 0)
(-0.00019799 -0.011324 0)
(-0.000198346 -0.0114563 0)
(-0.000198685 -0.0115889 0)
(-0.00019901 -0.0117217 0)
(-0.000199318 -0.0118548 0)
(-0.00019961 -0.011988 0)
(-0.000199887 -0.0121214 0)
(-0.000200148 -0.012255 0)
(-0.000200393 -0.0123887 0)