/*--------------------------------*- C++ -*----------------------------------*\
| =========                 |                                                 |
| \\      /  F ield         | OpenFOAM: The Open Source CFD Toolbox           |
|  \\    /   O peration     | Version:  v1912                                 |
|   \\  /    A nd           | Website:  www.openfoam.com                      |
|    \\/     M anipulation  |                                                 |
\*---------------------------------------------------------------------------*/
FoamFile
{
    version     2.0;
    format      ascii;
    class       pointVectorField;
    location    "1";
    object      pointD;
}
// * * * * * * * * * * * * * * * * * * * * * * * * * * * * * * * * * * * * * //

dimensions      [0 1 0 0 0 0 0];


internalField   nonuniform List<vector> 
5474
(
(-2.25965e-06 -1.74478e-06 0)
(-7.33768e-06 -4.753e-06 3.49624e-21)
(-1.3441e-05 -7.8877e-06 8.43777e-21)
(-1.99576e-05 -1.23419e-05 4.05538e-21)
(-2.64674e-05 -1.83079e-05 -9.2978e-21)
(-3.30024e-05 -2.58833e-05 -8.41165e-21)
(-3.95079e-05 -3.50826e-05 0)
(-4.59844e-05 -4.5906e-05 1.3814e-20)
(-5.24211e-05 -5.83446e-05 2.94104e-20)
(-5.8818e-05 -7.23885e-05 -1.77031e-21)
(-6.51728e-05 -8.80268e-05 -3.64918e-20)
(-7.14858e-05 -0.000105249 -2.46299e-20)
(-7.77566e-05 -0.000124044 -5.50479e-21)
(-8.39852e-05 -0.000144402 -5.43072e-21)
(-9.01716e-05 -0.000166312 -5.43072e-21)
(-9.63158e-05 -0.000189763 0)
(-0.000102418 -0.000214745 -5.31956e-21)
(-0.000108478 -0.000241247 -5.31956e-21)
(-0.000114495 -0.000269258 -5.24547e-21)
(-0.00012047 -0.000298769 -5.24547e-21)
(-0.000126404 -0.000329768 5.17142e-21)
(-0.000132295 -0.000362246 -3.25196e-20)
(-0.000138143 -0.000396191 -3.7691e-20)
(-0.00014395 -0.000431592 4.34445e-20)
(-0.000149715 -0.00046844 4.34445e-20)
(-0.000155438 -0.000506724 4.98631e-21)
(-0.000161117 -0.000546434 -3.82002e-20)
(-0.000166752 -0.000587556 -4.31865e-20)
(-0.000172347 -0.000630072 5.36347e-20)
(-0.00017789 -0.000673989 5.36347e-20)
(-0.00018339 -0.000719301 0)
(-0.000188853 -0.000765978 -4.85733e-20)
(-0.000194273 -0.000814011 -4.85733e-20)
(-0.000199655 -0.000863395 6.10056e-20)
(-0.000204993 -0.000914119 6.10056e-20)
(-0.000210289 -0.000966172 0)
(-0.000215542 -0.00101954 -6.07096e-20)
(-0.000220753 -0.00107422 -6.07096e-20)
(-0.000225923 -0.0011302 6.80797e-20)
(-0.00023105 -0.00118746 3.084e-21)
(-0.000236136 -0.001246 1.40588e-21)
(-0.00024118 -0.0013058 6.64016e-20)
(-0.000246182 -0.00136686 -6.91788e-20)
(-0.000251142 -0.00142917 -6.91788e-20)
(-0.000256059 -0.00149271 -7.19077e-20)
(-0.000260933 -0.00155748 7.45977e-20)
(-0.000265766 -0.00162345 1.46505e-19)
(-0.000270557 -0.00169063 1.34847e-33)
(-0.000275306 -0.001759 8.265e-21)
(-0.000280014 -0.00182856 -1.48786e-19)
(-0.000284679 -0.00189928 2.57818e-21)
(-0.000289303 -0.00197117 1.59629e-19)
(-0.000293884 -0.0020442 -8.23576e-20)
(-0.000298422 -0.00211838 -8.63049e-20)
(-0.000302919 -0.00219369 -9.27112e-20)
(-0.000307373 -0.00227011 8.14681e-20)
(-0.000311785 -0.00234765 1.70232e-19)
(-0.000316155 -0.00242628 -8.85098e-20)
(-0.000320482 -0.002506 -8.85098e-20)
(-0.000324766 -0.00258679 -9.27482e-20)
(-0.000329007 -0.00266865 8.95224e-20)
(-0.000333207 -0.00275156 1.82271e-19)
(-0.000337366 -0.00283552 -9.43655e-20)
(-0.000341482 -0.00292051 -9.79417e-20)
(-0.000345555 -0.00300653 -1.03742e-19)
(-0.000349587 -0.00309356 9.53144e-20)
(-0.000353576 -0.00318159 1.95481e-19)
(-0.000357523 -0.00327062 1.77478e-33)
(-0.000361428 -0.00336062 3.3907e-21)
(-0.00036529 -0.0034516 -2.02437e-19)
(-0.000369111 -0.00354354 -1.04356e-19)
(-0.000372889 -0.00363642 1.01472e-19)
(-0.000376625 -0.00373025 9.34566e-34)
(-0.000380318 -0.00382501 -3.20551e-21)
(-0.00038397 -0.00392068 -1.13605e-19)
(-0.000387579 -0.00401726 1.04489e-19)
(-0.000391146 -0.00411474 2.14888e-19)
(-0.000394671 -0.0042131 -1.15968e-32)
(-0.000398154 -0.00431234 -5.84968e-33)
(-0.000401595 -0.00441245 -2.25679e-19)
(-0.000404993 -0.00451341 -2.27152e-19)
(-0.000408349 -0.00461521 2.23531e-19)
(-0.000411663 -0.00471785 2.27876e-19)
(-0.000414935 -0.00482131 -2.30091e-19)
(-0.000418165 -0.00492559 -2.35761e-19)
(-0.000421352 -0.00503067 -5.55897e-21)
(-0.000424497 -0.00513653 1.12924e-19)
(-0.0004276 -0.00524318 1.15685e-19)
(-0.000430661 -0.0053506 -1.21433e-19)
(-0.000433679 -0.00545878 -1.24046e-19)
(-0.000436655 -0.00556771 -3.90035e-21)
(-0.000439589 -0.00567738 2.41312e-19)
(-0.00044248 -0.00578778 2.45099e-19)
(-0.000445328 -0.00589889 -2.47022e-19)
(-0.000448134 -0.0060107 -2.50736e-19)
(-0.000450899 -0.00612322 -3.60212e-21)
(-0.000453621 -0.00623643 2.4931e-19)
(-0.000456299 -0.00635031 2.54013e-19)
(-0.000458935 -0.00646485 -2.55761e-19)
(-0.000461531 -0.00658004 -2.59197e-19)
(-0.000464085 -0.00669588 -2.2247e-21)
(-0.000466599 -0.00681236 1.26737e-19)
(-0.000469072 -0.00692946 1.25709e-19)
(-0.000471503 -0.00704717 -1.35574e-19)
(-0.000473887 -0.00716548 -1.355e-19)
(-0.00047623 -0.00728438 -3.0664e-21)
(-0.00047853 -0.00740386 2.64576e-19)
(-0.000480788 -0.00752391 2.67527e-19)
(-0.000483004 -0.00764452 -2.68066e-19)
(-0.000485185 -0.00776569 -2.70952e-19)
(-0.000487325 -0.00788739 -1.85998e-21)
(-0.00048941 -0.00800961 2.69845e-19)
(-0.000491455 -0.00813235 2.72519e-19)
(-0.000493458 -0.0082556 -2.73882e-19)
(-0.000495418 -0.00837935 -2.77325e-19)
(-0.000497337 -0.00850358 -2.50841e-21)
(-0.000499214 -0.00862829 2.75507e-19)
(-0.000501049 -0.00875346 2.77904e-19)
(-0.000502842 -0.00887908 -2.79895e-19)
(-0.000504592 -0.00900515 -2.82968e-19)
(-0.0005063 -0.00913164 -2.96196e-21)
(-0.000507966 -0.00925856 2.80566e-19)
(-0.00050959 -0.00938589 2.83418e-19)
(-0.000511172 -0.00951363 -2.84458e-19)
(-0.00051271 -0.00964175 -2.86506e-19)
(-0.000514213 -0.00977025 -1.30314e-21)
(-0.000515673 -0.00989912 1.42213e-19)
(-0.000517084 -0.0100284 1.42857e-19)
(-0.000518453 -0.0101579 -1.45406e-19)
(-0.00051978 -0.0102878 -1.4597e-19)
(-0.000521065 -0.0104181 -1.11005e-21)
(-0.000522309 -0.0105486 2.89512e-19)
(-0.000523511 -0.0106795 2.91076e-19)
(-0.000524671 -0.0108107 -2.91346e-19)
(-0.000525788 -0.0109421 -2.93308e-19)
(-0.000526864 -0.0110738 -1.39778e-21)
(-0.000527897 -0.0112058 2.92742e-19)
(-0.000528888 -0.0113381 2.94028e-19)
(-0.000529837 -0.0114705 -2.94248e-19)
(-0.000530744 -0.0116032 -2.9584e-19)
(-0.000531609 -0.0117362 -1.11998e-21)
(-0.000532431 -0.0118693 2.95385e-19)
(-0.000533211 -0.0120027 2.96393e-19)
(-0.000533949 -0.0121362 -2.9687e-19)
(-0.000534645 -0.0122699 -2.97805e-19)
(-0.000535298 -0.0124038 -8.23371e-22)
(-0.000535909 -0.0125378 1.48194e-19)
(-0.000536478 -0.012672 1.4873e-19)
(-0.000537005 -0.0128063 -1.49485e-19)
(-0.00053749 -0.0129408 -1.49679e-19)
(-0.000537932 -0.0130753 -5.45557e-22)
(-0.000538332 -0.01321 1.48957e-19)
(-0.00053869 -0.0133448 1.49309e-19)
(-0.000539006 -0.0134796 -1.50039e-19)
(-0.00053928 -0.0136145 -1.50243e-19)
(-0.000539513 -0.0137495 -2.88294e-22)
(-0.000539705 -0.0138846 2.99733e-19)
(-0.000539859 -0.0140196 2.99918e-19)
(-0.00053998 -0.0141548 -3.00089e-19)
(-0.000540085 -0.0142899 -3.00252e-19)
(-0.000523226 -0.0143914 6.00609e-19)
(0 0 0)
(-5.84093e-06 -3.48995e-06 0)
(-1.15673e-05 -6.59697e-06 0)
(-1.73485e-05 -1.10454e-05 0)
(-2.30828e-05 -1.7015e-05 0)
(-2.88138e-05 -2.45934e-05 0)
(-3.45108e-05 -3.37993e-05 0)
(-4.01791e-05 -4.46297e-05 0)
(-4.58116e-05 -5.70762e-05 0)
(-5.14088e-05 -7.11281e-05 0)
(-5.69693e-05 -8.67747e-05 0)
(-6.24931e-05 -0.000104005 0)
(-6.798e-05 -0.000122809 0)
(-7.34301e-05 -0.000143175 0)
(-7.88431e-05 -0.000165093 0)
(-8.42193e-05 -0.000188552 0)
(-8.95585e-05 -0.000213543 0)
(-9.48608e-05 -0.000240053 0)
(-0.000100126 -0.000268073 0)
(-0.000105355 -0.000297592 0)
(-0.000110546 -0.0003286 0)
(-0.000115701 -0.000361086 0)
(-0.000120818 -0.000395039 0)
(-0.000125899 -0.000430449 0)
(-0.000130943 -0.000467305 0)
(-0.000135951 -0.000505597 0)
(-0.000140921 -0.000545316 0)
(-0.000145855 -0.000586446 0)
(-0.000150754 -0.00062897 0)
(-0.000155597 -0.000672897 0)
(-0.000160404 -0.000718218 0)
(-0.000165187 -0.000764903 0)
(-0.00016993 -0.000812944 0)
(-0.00017464 -0.000862336 0)
(-0.000179311 -0.000913068 0)
(-0.000183945 -0.000965129 0)
(-0.000188542 -0.00101851 0)
(-0.000193102 -0.0010732 0)
(-0.000197625 -0.00112918 0)
(-0.000202112 -0.00118645 0)
(-0.000206562 -0.001245 0)
(-0.000210975 -0.00130481 0)
(-0.000215352 -0.00136588 0)
(-0.000219692 -0.00142819 0)
(-0.000223995 -0.00149174 0)
(-0.00022826 -0.00155652 0)
(-0.000232489 -0.0016225 0)
(-0.000236681 -0.00168969 0)
(-0.000240837 -0.00175807 0)
(-0.000244956 -0.00182763 0)
(-0.000249038 -0.00189836 0)
(-0.000253083 -0.00197026 0)
(-0.000257092 -0.0020433 0)
(-0.000261063 -0.00211749 0)
(-0.000264998 -0.0021928 0)
(-0.000268895 -0.00226924 0)
(-0.000272756 -0.00234678 0)
(-0.000276579 -0.00242542 0)
(-0.000280365 -0.00250515 0)
(-0.000284114 -0.00258595 0)
(-0.000287826 -0.00266782 0)
(-0.000291501 -0.00275074 0)
(-0.000295139 -0.0028347 0)
(-0.000298741 -0.0029197 0)
(-0.000302305 -0.00300573 0)
(-0.000305833 -0.00309277 0)
(-0.000309324 -0.00318081 0)
(-0.000312777 -0.00326984 0)
(-0.000316194 -0.00335986 0)
(-0.000319573 -0.00345084 0)
(-0.000322916 -0.00354279 0)
(-0.000326222 -0.00363568 0)
(-0.000329491 -0.00372952 0)
(-0.000332723 -0.00382428 0)
(-0.000335918 -0.00391996 0)
(-0.000339076 -0.00401655 0)
(-0.000342198 -0.00411404 0)
(-0.000345282 -0.00421241 0)
(-0.000348329 -0.00431166 0)
(-0.00035134 -0.00441177 0)
(-0.000354313 -0.00451274 0)
(-0.00035725 -0.00461455 0)
(-0.00036015 -0.0047172 0)
(-0.000363013 -0.00482067 0)
(-0.000365838 -0.00492495 0)
(-0.000368627 -0.00503004 0)
(-0.000371379 -0.00513592 0)
(-0.000374094 -0.00524257 0)
(-0.000376772 -0.00535 0)
(-0.000379414 -0.00545819 0)
(-0.000382018 -0.00556713 0)
(-0.000384585 -0.0056768 0)
(-0.000387115 -0.00578721 0)
(-0.000389607 -0.00589833 0)
(-0.000392063 -0.00601015 0)
(-0.000394481 -0.00612268 0)
(-0.000396861 -0.00623589 0)
(-0.000399205 -0.00634978 0)
(-0.000401512 -0.00646433 0)
(-0.000403783 -0.00657954 0)
(-0.000406018 -0.00669538 0)
(-0.000408216 -0.00681187 0)
(-0.000410382 -0.00692898 0)
(-0.000412512 -0.00704669 0)
(-0.000414597 -0.00716501 0)
(-0.000416646 -0.00728392 0)
(-0.000418657 -0.00740341 0)
(-0.000420633 -0.00752347 0)
(-0.000422568 -0.00764409 0)
(-0.000424475 -0.00776526 0)
(-0.000426355 -0.00788697 0)
(-0.000428182 -0.0080092 0)
(-0.000429968 -0.00813195 0)
(-0.00043172 -0.00825521 0)
(-0.000433436 -0.00837897 0)
(-0.000435115 -0.00850321 0)
(-0.000436757 -0.00862792 0)
(-0.000438363 -0.0087531 0)
(-0.000439931 -0.00887873 0)
(-0.000441463 -0.0090048 0)
(-0.000442957 -0.00913131 0)
(-0.000444415 -0.00925824 0)
(-0.000445835 -0.00938558 0)
(-0.00044722 -0.00951332 0)
(-0.000448564 -0.00964145 0)
(-0.000449877 -0.00976996 0)
(-0.00045116 -0.00989884 0)
(-0.000452395 -0.0100281 0)
(-0.000453591 -0.0101577 0)
(-0.000454752 -0.0102876 0)
(-0.000455877 -0.0104178 0)
(-0.000456965 -0.0105484 0)
(-0.000458017 -0.0106793 0)
(-0.000459031 -0.0108104 0)
(-0.000460009 -0.0109419 0)
(-0.00046095 -0.0110736 0)
(-0.000461855 -0.0112056 0)
(-0.000462722 -0.0113379 0)
(-0.000463552 -0.0114703 0)
(-0.000464346 -0.0116031 0)
(-0.000465102 -0.011736 0)
(-0.000465822 -0.0118692 0)
(-0.000466504 -0.0120025 0)
(-0.00046715 -0.012136 0)
(-0.000467759 -0.0122698 0)
(-0.00046833 -0.0124037 0)
(-0.000468865 -0.0125377 0)
(-0.000469363 -0.0126719 0)
(-0.000469824 -0.0128062 0)
(-0.000470248 -0.0129407 0)
(-0.000470635 -0.0130752 0)
(-0.000470985 -0.0132099 0)
(-0.000471299 -0.0133447 0)
(-0.000471575 -0.0134796 0)
(-0.000471815 -0.0136145 0)
(-0.000472018 -0.0137495 0)
(-0.000472186 -0.0138845 0)
(-0.000472318 -0.0140196 0)
(-0.000472416 -0.0141547 0)
(-0.000472483 -0.0142899 0)
(-0.000472517 -0.0144252 1.2008e-18)
(0 0 0)
(-4.76676e-06 -2.47016e-06 0)
(-9.75425e-06 -5.45254e-06 0)
(-1.47559e-05 -9.88611e-06 0)
(-1.97109e-05 -1.58582e-05 0)
(-2.4641e-05 -2.34428e-05 0)
(-2.95331e-05 -3.26562e-05 0)
(-3.43954e-05 -4.34939e-05 0)
(-3.92248e-05 -5.59479e-05 0)
(-4.4023e-05 -7.00073e-05 0)
(-4.87893e-05 -8.56613e-05 0)
(-5.3524e-05 -0.000102899 0)
(-5.82271e-05 -0.00012171 0)
(-6.28985e-05 -0.000142084 0)
(-6.75383e-05 -0.000164009 0)
(-7.21464e-05 -0.000187476 0)
(-7.67229e-05 -0.000212474 0)
(-8.12677e-05 -0.000238991 0)
(-8.57808e-05 -0.000267019 0)
(-9.02623e-05 -0.000296545 0)
(-9.47121e-05 -0.000327561 0)
(-9.91304e-05 -0.000360054 0)
(-0.000103517 -0.000394014 0)
(-0.000107872 -0.000429432 0)
(-0.000112195 -0.000466295 0)
(-0.000116488 -0.000504595 0)
(-0.000120749 -0.00054432 0)
(-0.000124986 -0.000585458 0)
(-0.000129183 -0.000627993 0)
(-0.000133314 -0.00067193 0)
(-0.000137435 -0.000717255 0)
(-0.000141543 -0.000763945 0)
(-0.00014561 -0.000811994 0)
(-0.000149648 -0.000861394 0)
(-0.000153652 -0.000912133 0)
(-0.000157624 -0.000964202 0)
(-0.000161565 -0.00101759 0)
(-0.000165474 -0.00107228 0)
(-0.000169351 -0.00112827 0)
(-0.000173197 -0.00118555 0)
(-0.000177011 -0.00124411 0)
(-0.000180794 -0.00130393 0)
(-0.000184545 -0.001365 0)
(-0.000188265 -0.00142733 0)
(-0.000191954 -0.00149088 0)
(-0.00019561 -0.00155566 0)
(-0.000199235 -0.00162166 0)
(-0.000202829 -0.00168885 0)
(-0.000206391 -0.00175724 0)
(-0.000209922 -0.00182681 0)
(-0.000213421 -0.00189755 0)
(-0.000216888 -0.00196945 0)
(-0.000220324 -0.0020425 0)
(-0.000223728 -0.00211669 0)
(-0.0002271 -0.00219202 0)
(-0.000230441 -0.00226846 0)
(-0.00023375 -0.00234601 0)
(-0.000237027 -0.00242465 0)
(-0.000240273 -0.00250439 0)
(-0.000243486 -0.0025852 0)
(-0.000246668 -0.00266707 0)
(-0.000249818 -0.00275 0)
(-0.000252937 -0.00283398 0)
(-0.000256024 -0.00291898 0)
(-0.000259079 -0.00300502 0)
(-0.000262103 -0.00309206 0)
(-0.000265095 -0.00318011 0)
(-0.000268055 -0.00326915 0)
(-0.000270983 -0.00335917 0)
(-0.00027388 -0.00345017 0)
(-0.000276746 -0.00354212 0)
(-0.000279579 -0.00363502 0)
(-0.000282381 -0.00372886 0)
(-0.000285151 -0.00382363 0)
(-0.00028789 -0.00391932 0)
(-0.000290597 -0.00401592 0)
(-0.000293272 -0.00411341 0)
(-0.000295916 -0.00421179 0)
(-0.000298528 -0.00431105 0)
(-0.000301109 -0.00441117 0)
(-0.000303657 -0.00451215 0)
(-0.000306174 -0.00461397 0)
(-0.00030866 -0.00471662 0)
(-0.000311114 -0.0048201 0)
(-0.000313536 -0.00492439 0)
(-0.000315926 -0.00502948 0)
(-0.000318285 -0.00513537 0)
(-0.000320612 -0.00524203 0)
(-0.000322908 -0.00534947 0)
(-0.000325172 -0.00545766 0)
(-0.000327404 -0.00556661 0)
(-0.000329605 -0.00567629 0)
(-0.000331774 -0.0057867 0)
(-0.000333911 -0.00589783 0)
(-0.000336016 -0.00600966 0)
(-0.000338086 -0.0061222 0)
(-0.000340125 -0.00623542 0)
(-0.000342134 -0.00634931 0)
(-0.000344112 -0.00646387 0)
(-0.000346058 -0.00657908 0)
(-0.000347974 -0.00669494 0)
(-0.000349853 -0.00681143 0)
(-0.00035171 -0.00692854 0)
(-0.000353545 -0.00704627 0)
(-0.000355333 -0.00716459 0)
(-0.000357085 -0.00728351 0)
(-0.000358809 -0.00740301 0)
(-0.000360502 -0.00752308 0)
(-0.00036216 -0.0076437 0)
(-0.00036379 -0.00776488 0)
(-0.000365402 -0.0078866 0)
(-0.000366972 -0.00800884 0)
(-0.000368503 -0.0081316 0)
(-0.000370006 -0.00825486 0)
(-0.000371477 -0.00837863 0)
(-0.000372916 -0.00850287 0)
(-0.000374324 -0.00862759 0)
(-0.0003757 -0.00875278 0)
(-0.000377044 -0.00887842 0)
(-0.000378357 -0.0090045 0)
(-0.000379638 -0.00913101 0)
(-0.000380888 -0.00925795 0)
(-0.000382105 -0.0093853 0)
(-0.000383291 -0.00951304 0)
(-0.000384443 -0.00964118 0)
(-0.000385566 -0.0097697 0)
(-0.000386665 -0.00989858 0)
(-0.000387726 -0.0100278 0)
(-0.000388751 -0.0101574 0)
(-0.000389747 -0.0102874 0)
(-0.000390712 -0.0104176 0)
(-0.000391645 -0.0105482 0)
(-0.000392546 -0.0106791 0)
(-0.000393416 -0.0108102 0)
(-0.000394254 -0.0109417 0)
(-0.000395061 -0.0110734 0)
(-0.000395836 -0.0112054 0)
(-0.000396579 -0.0113377 0)
(-0.000397291 -0.0114702 0)
(-0.000397971 -0.0116029 0)
(-0.00039862 -0.0117359 0)
(-0.000399236 -0.011869 0)
(-0.000399821 -0.0120024 0)
(-0.000400375 -0.0121359 0)
(-0.000400896 -0.0122696 0)
(-0.000401387 -0.0124035 0)
(-0.000401845 -0.0125376 0)
(-0.000402272 -0.0126718 0)
(-0.000402667 -0.0128061 0)
(-0.00040303 -0.0129406 0)
(-0.000403362 -0.0130752 0)
(-0.000403662 -0.0132099 0)
(-0.000403931 -0.0133446 0)
(-0.000404168 -0.0134795 0)
(-0.000404373 -0.0136144 0)
(-0.000404547 -0.0137494 0)
(-0.000404688 -0.0138845 0)
(-0.000404798 -0.0140196 0)
(-0.000404875 -0.0141547 0)
(-0.000404921 -0.0142899 0)
(-0.000404945 -0.0144251 1.19996e-18)
(0 0 0)
(-3.8557e-06 -1.70628e-06 0)
(-8.01069e-06 -4.51601e-06 0)
(-1.22067e-05 -8.91541e-06 0)
(-1.63641e-05 -1.48869e-05 0)
(-2.04885e-05 -2.24794e-05 0)
(-2.45741e-05 -3.17011e-05 0)
(-2.86302e-05 -4.25463e-05 0)
(-3.26565e-05 -5.50073e-05 0)
(-3.66558e-05 -6.90732e-05 0)
(-4.0628e-05 -8.47336e-05 0)
(-4.45738e-05 -0.000101978 0)
(-4.8493e-05 -0.000120795 0)
(-5.23859e-05 -0.000141175 0)
(-5.62523e-05 -0.000163106 0)
(-6.00924e-05 -0.000186579 0)
(-6.39061e-05 -0.000211583 0)
(-6.76934e-05 -0.000238107 0)
(-7.14544e-05 -0.000266141 0)
(-7.51889e-05 -0.000295673 0)
(-7.88971e-05 -0.000326695 0)
(-8.2579e-05 -0.000359194 0)
(-8.62344e-05 -0.000393161 0)
(-8.98636e-05 -0.000428584 0)
(-9.34662e-05 -0.000465454 0)
(-9.70437e-05 -0.000503759 0)
(-0.000100593 -0.00054349 0)
(-0.000104125 -0.000584634 0)
(-0.000107611 -0.000627186 0)
(-0.000111049 -0.000671128 0)
(-0.000114492 -0.00071645 0)
(-0.000117919 -0.000763145 0)
(-0.00012131 -0.000811202 0)
(-0.000124675 -0.000860608 0)
(-0.000128012 -0.000911355 0)
(-0.000131323 -0.00096343 0)
(-0.000134607 -0.00101682 0)
(-0.000137864 -0.00107152 0)
(-0.000141095 -0.00112752 0)
(-0.0001443 -0.0011848 0)
(-0.000147479 -0.00124336 0)
(-0.000150631 -0.00130319 0)
(-0.000153758 -0.00136427 0)
(-0.000156858 -0.0014266 0)
(-0.000159932 -0.00149017 0)
(-0.000162979 -0.00155495 0)
(-0.000166 -0.00162095 0)
(-0.000168995 -0.00168815 0)
(-0.000171964 -0.00175654 0)
(-0.000174906 -0.00182612 0)
(-0.000177822 -0.00189687 0)
(-0.000180711 -0.00196877 0)
(-0.000183574 -0.00204183 0)
(-0.000186411 -0.00211603 0)
(-0.000189222 -0.00219136 0)
(-0.000192006 -0.00226781 0)
(-0.000194763 -0.00234536 0)
(-0.000197494 -0.00242402 0)
(-0.000200199 -0.00250376 0)
(-0.000202877 -0.00258457 0)
(-0.000205529 -0.00266646 0)
(-0.000208154 -0.00274939 0)
(-0.000210753 -0.00283337 0)
(-0.000213326 -0.00291839 0)
(-0.000215872 -0.00300442 0)
(-0.000218392 -0.00309148 0)
(-0.000220885 -0.00317953 0)
(-0.000223352 -0.00326858 0)
(-0.000225792 -0.0033586 0)
(-0.000228206 -0.0034496 0)
(-0.000230594 -0.00354156 0)
(-0.000232955 -0.00363447 0)
(-0.00023529 -0.00372832 0)
(-0.000237599 -0.0038231 0)
(-0.000239881 -0.00391879 0)
(-0.000242137 -0.00401539 0)
(-0.000244366 -0.00411289 0)
(-0.000246569 -0.00421128 0)
(-0.000248746 -0.00431054 0)
(-0.000250896 -0.00441067 0)
(-0.00025302 -0.00451165 0)
(-0.000255118 -0.00461348 0)
(-0.000257189 -0.00471614 0)
(-0.000259234 -0.00481962 0)
(-0.000261252 -0.00492392 0)
(-0.000263244 -0.00502902 0)
(-0.00026521 -0.00513491 0)
(-0.000267149 -0.00524158 0)
(-0.000269062 -0.00534902 0)
(-0.000270949 -0.00545722 0)
(-0.000272809 -0.00556618 0)
(-0.000274644 -0.00567587 0)
(-0.000276451 -0.00578628 0)
(-0.000278233 -0.00589742 0)
(-0.00027999 -0.00600926 0)
(-0.000281711 -0.00612179 0)
(-0.000283407 -0.00623502 0)
(-0.000285082 -0.00634892 0)
(-0.000286731 -0.00646349 0)
(-0.000288353 -0.00657871 0)
(-0.000289948 -0.00669457 0)
(-0.000291513 -0.00681106 0)
(-0.000293057 -0.00692818 0)
(-0.000294588 -0.00704591 0)
(-0.000296083 -0.00716425 0)
(-0.000297543 -0.00728317 0)
(-0.00029898 -0.00740268 0)
(-0.00030039 -0.00752275 0)
(-0.000301774 -0.00764338 0)
(-0.000303131 -0.00776456 0)
(-0.000304469 -0.00788628 0)
(-0.000305779 -0.00800854 0)
(-0.000307058 -0.0081313 0)
(-0.000308311 -0.00825457 0)
(-0.000309537 -0.00837834 0)
(-0.000310736 -0.00850259 0)
(-0.000311909 -0.00862732 0)
(-0.000313056 -0.00875251 0)
(-0.000314176 -0.00887816 0)
(-0.00031527 -0.00900425 0)
(-0.000316338 -0.00913077 0)
(-0.000317379 -0.00925771 0)
(-0.000318394 -0.00938506 0)
(-0.000319383 -0.00951282 0)
(-0.000320344 -0.00964096 0)
(-0.000321279 -0.00976948 0)
(-0.00032219 -0.00989837 0)
(-0.000323072 -0.0100276 0)
(-0.00032393 -0.0101572 0)
(-0.000324761 -0.0102872 0)
(-0.000325565 -0.0104174 0)
(-0.000326343 -0.010548 0)
(-0.000327094 -0.0106789 0)
(-0.000327819 -0.0108101 0)
(-0.000328518 -0.0109415 0)
(-0.00032919 -0.0110733 0)
(-0.000329836 -0.0112053 0)
(-0.000330455 -0.0113375 0)
(-0.000331048 -0.01147 0)
(-0.000331615 -0.0116028 0)
(-0.000332156 -0.0117357 0)
(-0.00033267 -0.0118689 0)
(-0.000333157 -0.0120023 0)
(-0.000333618 -0.0121358 0)
(-0.000334053 -0.0122695 0)
(-0.000334462 -0.0124034 0)
(-0.000334844 -0.0125375 0)
(-0.000335199 -0.0126717 0)
(-0.000335528 -0.0128061 0)
(-0.000335831 -0.0129405 0)
(-0.000336108 -0.0130751 0)
(-0.000336358 -0.0132098 0)
(-0.000336582 -0.0133446 0)
(-0.000336779 -0.0134795 0)
(-0.00033695 -0.0136144 0)
(-0.000337094 -0.0137494 0)
(-0.00033721 -0.0138845 0)
(-0.000337299 -0.0140196 0)
(-0.000337359 -0.0141547 0)
(-0.000337392 -0.0142899 0)
(-0.000337411 -0.0144251 3.0003e-19)
(0 0 0)
(-3.02434e-06 -1.12627e-06 0)
(-6.33114e-06 -3.76082e-06 0)
(-9.70219e-06 -8.11356e-06 0)
(-1.3046e-05 -1.40806e-05 0)
(-1.63575e-05 -2.16801e-05 0)
(-1.96332e-05 -3.09099e-05 0)
(-2.28817e-05 -4.17623e-05 0)
(-2.61046e-05 -5.42296e-05 0)
(-2.93048e-05 -6.83012e-05 0)
(-3.24829e-05 -8.3967e-05 0)
(-3.56396e-05 -0.000101216 0)
(-3.8775e-05 -0.000120039 0)
(-4.18893e-05 -0.000140424 0)
(-4.49825e-05 -0.00016236 0)
(-4.80545e-05 -0.000185838 0)
(-5.11055e-05 -0.000210847 0)
(-5.41353e-05 -0.000237376 0)
(-5.71441e-05 -0.000265415 0)
(-6.01317e-05 -0.000294953 0)
(-6.30982e-05 -0.00032598 0)
(-6.60437e-05 -0.000358484 0)
(-6.89679e-05 -0.000392456 0)
(-7.18712e-05 -0.000427884 0)
(-7.47529e-05 -0.000464759 0)
(-7.76142e-05 -0.00050307 0)
(-8.04524e-05 -0.000542805 0)
(-8.32713e-05 -0.000583957 0)
(-8.60576e-05 -0.000626516 0)
(-8.88201e-05 -0.000670462 0)
(-9.15779e-05 -0.000715785 0)
(-9.43137e-05 -0.000762485 0)
(-9.7027e-05 -0.000810548 0)
(-9.97192e-05 -0.000859959 0)
(-0.000102389 -0.000910711 0)
(-0.000105038 -0.000962792 0)
(-0.000107665 -0.00101619 0)
(-0.000110271 -0.00107089 0)
(-0.000112856 -0.0011269 0)
(-0.00011542 -0.00118419 0)
(-0.000117963 -0.00124275 0)
(-0.000120485 -0.00130258 0)
(-0.000122986 -0.00136367 0)
(-0.000125466 -0.001426 0)
(-0.000127926 -0.00148957 0)
(-0.000130363 -0.00155437 0)
(-0.000132781 -0.00162037 0)
(-0.000135177 -0.00168757 0)
(-0.000137553 -0.00175597 0)
(-0.000139907 -0.00182555 0)
(-0.000142239 -0.0018963 0)
(-0.000144551 -0.00196822 0)
(-0.000146841 -0.00204128 0)
(-0.000149111 -0.00211549 0)
(-0.000151359 -0.00219082 0)
(-0.000153586 -0.00226727 0)
(-0.000155793 -0.00234483 0)
(-0.000157978 -0.00242349 0)
(-0.000160142 -0.00250324 0)
(-0.000162285 -0.00258406 0)
(-0.000164406 -0.00266594 0)
(-0.000166506 -0.00274888 0)
(-0.000168586 -0.00283287 0)
(-0.000170644 -0.00291789 0)
(-0.000172681 -0.00300393 0)
(-0.000174697 -0.00309099 0)
(-0.000176691 -0.00317905 0)
(-0.000178664 -0.0032681 0)
(-0.000180617 -0.00335813 0)
(-0.000182548 -0.00344914 0)
(-0.000184458 -0.0035411 0)
(-0.000186347 -0.00363402 0)
(-0.000188215 -0.00372787 0)
(-0.000190062 -0.00382265 0)
(-0.000191888 -0.00391835 0)
(-0.000193692 -0.00401496 0)
(-0.000195476 -0.00411246 0)
(-0.000197238 -0.00421086 0)
(-0.00019898 -0.00431012 0)
(-0.0002007 -0.00441026 0)
(-0.000202399 -0.00451124 0)
(-0.000204077 -0.00461308 0)
(-0.000205734 -0.00471574 0)
(-0.00020737 -0.00481923 0)
(-0.000208985 -0.00492353 0)
(-0.000210578 -0.00502864 0)
(-0.000212151 -0.00513453 0)
(-0.000213702 -0.00524121 0)
(-0.000215233 -0.00534866 0)
(-0.000216742 -0.00545686 0)
(-0.00021823 -0.00556582 0)
(-0.000219698 -0.00567551 0)
(-0.000221145 -0.00578594 0)
(-0.000222575 -0.00589708 0)
(-0.000223979 -0.00600892 0)
(-0.000225346 -0.00612146 0)
(-0.000226702 -0.0062347 0)
(-0.000228046 -0.0063486 0)
(-0.000229365 -0.00646317 0)
(-0.000230664 -0.0065784 0)
(-0.00023194 -0.00669426 0)
(-0.000233195 -0.00681076 0)
(-0.000234428 -0.00692789 0)
(-0.000235648 -0.00704562 0)
(-0.000236845 -0.00716396 0)
(-0.000238016 -0.00728289 0)
(-0.000239166 -0.0074024 0)
(-0.000240295 -0.00752248 0)
(-0.000241403 -0.00764312 0)
(-0.00024249 -0.0077643 0)
(-0.000243558 -0.00788603 0)
(-0.000244605 -0.00800828 0)
(-0.000245629 -0.00813106 0)
(-0.000246632 -0.00825433 0)
(-0.000247612 -0.00837811 0)
(-0.000248572 -0.00850236 0)
(-0.000249511 -0.0086271 0)
(-0.000250428 -0.00875229 0)
(-0.000251324 -0.00887794 0)
(-0.0002522 -0.00900404 0)
(-0.000253054 -0.00913056 0)
(-0.000253887 -0.00925751 0)
(-0.000254699 -0.00938487 0)
(-0.00025549 -0.00951263 0)
(-0.00025626 -0.00964078 0)
(-0.000257011 -0.0097693 0)
(-0.000257738 -0.0098982 0)
(-0.000258438 -0.0100275 0)
(-0.000259124 -0.0101571 0)
(-0.000259792 -0.010287 0)
(-0.000260435 -0.0104173 0)
(-0.000261058 -0.0105479 0)
(-0.000261659 -0.0106788 0)
(-0.000262238 -0.0108099 0)
(-0.000262797 -0.0109414 0)
(-0.000263335 -0.0110732 0)
(-0.000263851 -0.0112052 0)
(-0.000264347 -0.0113374 0)
(-0.000264822 -0.0114699 0)
(-0.000265276 -0.0116027 0)
(-0.000265708 -0.0117356 0)
(-0.000266119 -0.0118688 0)
(-0.000266509 -0.0120022 0)
(-0.000266878 -0.0121357 0)
(-0.000267226 -0.0122695 0)
(-0.000267553 -0.0124034 0)
(-0.000267858 -0.0125374 0)
(-0.000268143 -0.0126716 0)
(-0.000268406 -0.012806 0)
(-0.000268648 -0.0129405 0)
(-0.00026887 -0.0130751 0)
(-0.00026907 -0.0132098 0)
(-0.000269249 -0.0133446 0)
(-0.000269406 -0.0134794 0)
(-0.000269543 -0.0136144 0)
(-0.000269657 -0.0137494 0)
(-0.000269749 -0.0138845 0)
(-0.000269818 -0.0140196 0)
(-0.000269863 -0.0141547 0)
(-0.000269888 -0.0142899 0)
(-0.000269905 -0.014425 -1.49857e-18)
(0 0 0)
(-2.23752e-06 -7.10242e-07 0)
(-4.7034e-06 -3.18978e-06 0)
(-7.23837e-06 -7.49427e-06 0)
(-9.75598e-06 -1.34546e-05 0)
(-1.22472e-05 -2.10597e-05 0)
(-1.47087e-05 -3.02966e-05 0)
(-1.71477e-05 -4.11554e-05 0)
(-1.95661e-05 -5.36281e-05 0)
(-2.19668e-05 -6.77043e-05 0)
(-2.43506e-05 -8.33745e-05 0)
(-2.67182e-05 -0.000100628 0)
(-2.90698e-05 -0.000119454 0)
(-3.14055e-05 -0.000139843 0)
(-3.37254e-05 -0.000161784 0)
(-3.60294e-05 -0.000185266 0)
(-3.83176e-05 -0.000210279 0)
(-4.059e-05 -0.000236812 0)
(-4.28465e-05 -0.000264854 0)
(-4.50872e-05 -0.000294396 0)
(-4.73121e-05 -0.000325427 0)
(-4.95211e-05 -0.000357935 0)
(-5.17142e-05 -0.000391911 0)
(-5.38915e-05 -0.000427344 0)
(-5.60526e-05 -0.000464222 0)
(-5.81981e-05 -0.000502537 0)
(-6.03261e-05 -0.000542277 0)
(-6.24386e-05 -0.000583433 0)
(-6.4531e-05 -0.000625995 0)
(-6.66058e-05 -0.000669944 0)
(-6.86713e-05 -0.000715272 0)
(-7.07218e-05 -0.000761976 0)
(-7.27568e-05 -0.000810042 0)
(-7.47761e-05 -0.000859458 0)
(-7.6779e-05 -0.000910214 0)
(-7.87656e-05 -0.000962298 0)
(-8.07357e-05 -0.0010157 0)
(-8.26904e-05 -0.00107041 0)
(-8.46293e-05 -0.00112642 0)
(-8.65522e-05 -0.00118371 0)
(-8.84594e-05 -0.00124228 0)
(-9.03509e-05 -0.00130211 0)
(-9.22267e-05 -0.0013632 0)
(-9.40875e-05 -0.00142554 0)
(-9.59323e-05 -0.00148912 0)
(-9.7761e-05 -0.00155391 0)
(-9.95744e-05 -0.00161992 0)
(-0.000101372 -0.00168713 0)
(-0.000103154 -0.00175553 0)
(-0.00010492 -0.00182511 0)
(-0.00010667 -0.00189587 0)
(-0.000108403 -0.00196779 0)
(-0.000110121 -0.00204086 0)
(-0.000111823 -0.00211506 0)
(-0.000113509 -0.0021904 0)
(-0.00011518 -0.00226686 0)
(-0.000116835 -0.00234442 0)
(-0.000118474 -0.00242308 0)
(-0.000120097 -0.00250283 0)
(-0.000121705 -0.00258366 0)
(-0.000123296 -0.00266555 0)
(-0.000124871 -0.00274849 0)
(-0.000126431 -0.00283248 0)
(-0.000127975 -0.00291751 0)
(-0.000129503 -0.00300355 0)
(-0.000131014 -0.00309062 0)
(-0.00013251 -0.00317868 0)
(-0.00013399 -0.00326773 0)
(-0.000135454 -0.00335777 0)
(-0.000136903 -0.00344878 0)
(-0.000138335 -0.00354075 0)
(-0.000139752 -0.00363367 0)
(-0.000141153 -0.00372752 0)
(-0.000142538 -0.00382231 0)
(-0.000143907 -0.00391801 0)
(-0.000145261 -0.00401462 0)
(-0.000146598 -0.00411213 0)
(-0.00014792 -0.00421053 0)
(-0.000149226 -0.0043098 0)
(-0.000150516 -0.00440994 0)
(-0.000151791 -0.00451093 0)
(-0.000153049 -0.00461276 0)
(-0.000154292 -0.00471543 0)
(-0.000155519 -0.00481893 0)
(-0.00015673 -0.00492323 0)
(-0.000157925 -0.00502834 0)
(-0.000159105 -0.00513424 0)
(-0.000160268 -0.00524092 0)
(-0.000161416 -0.00534837 0)
(-0.000162548 -0.00545658 0)
(-0.000163664 -0.00556554 0)
(-0.000164765 -0.00567524 0)
(-0.00016585 -0.00578567 0)
(-0.000166923 -0.00589681 0)
(-0.00016797 -0.00600866 0)
(-0.000168992 -0.00612121 0)
(-0.000170013 -0.00623444 0)
(-0.000171023 -0.00634835 0)
(-0.000172013 -0.00646293 0)
(-0.000172987 -0.00657815 0)
(-0.000173945 -0.00669403 0)
(-0.000174887 -0.00681053 0)
(-0.000175813 -0.00692766 0)
(-0.000176727 -0.0070454 0)
(-0.000177623 -0.00716374 0)
(-0.000178502 -0.00728267 0)
(-0.000179366 -0.00740219 0)
(-0.000180213 -0.00752227 0)
(-0.000181044 -0.00764291 0)
(-0.000181859 -0.0077641 0)
(-0.00018266 -0.00788583 0)
(-0.000183445 -0.00800809 0)
(-0.000184213 -0.00813087 0)
(-0.000184965 -0.00825415 0)
(-0.000185701 -0.00837793 0)
(-0.000186421 -0.00850219 0)
(-0.000187125 -0.00862692 0)
(-0.000187813 -0.00875212 0)
(-0.000188485 -0.00887778 0)
(-0.000189142 -0.00900388 0)
(-0.000189782 -0.0091304 0)
(-0.000190407 -0.00925736 0)
(-0.000191017 -0.00938472 0)
(-0.00019161 -0.00951248 0)
(-0.000192188 -0.00964063 0)
(-0.000192753 -0.00976917 0)
(-0.0001933 -0.00989807 0)
(-0.000193822 -0.0100273 0)
(-0.000194334 -0.0101569 0)
(-0.000194835 -0.0102869 0)
(-0.000195318 -0.0104172 0)
(-0.000195785 -0.0105478 0)
(-0.000196236 -0.0106786 0)
(-0.000196671 -0.0108098 0)
(-0.00019709 -0.0109413 0)
(-0.000197493 -0.0110731 0)
(-0.00019788 -0.0112051 0)
(-0.000198253 -0.0113373 0)
(-0.000198609 -0.0114698 0)
(-0.000198949 -0.0116026 0)
(-0.000199273 -0.0117355 0)
(-0.000199581 -0.0118687 0)
(-0.000199874 -0.0120021 0)
(-0.00020015 -0.0121357 0)
(-0.000200411 -0.0122694 0)
(-0.000200656 -0.0124033 0)
(-0.000200886 -0.0125374 0)
(-0.000201099 -0.0126716 0)
(-0.000201297 -0.0128059 0)
(-0.000201478 -0.0129404 0)
(-0.000201644 -0.013075 0)
(-0.000201794 -0.0132097 0)
(-0.000201929 -0.0133445 0)