/*--------------------------------*- C++ -*----------------------------------*\
| =========                 |                                                 |
| \\      /  F ield         | foam-extend: Open Source CFD                    |
|  \\    /   O peration     | Version:     4.0                                |
|   \\  /    A nd           | Web:         http://www.foam-extend.org         |
|    \\/     M anipulation  |                                                 |
\*---------------------------------------------------------------------------*/
FoamFile
{
    version     2.0;
    format      ascii;
    class       volScalarField;
    location    "1";
    object      sigmaEq;
}
// * * * * * * * * * * * * * * * * * * * * * * * * * * * * * * * * * * * * * //

dimensions      [1 -1 -2 0 0 0 0];

internalField   nonuniform List<scalar> 
2560
(
9.88011e+07
9.42742e+07
9.58759e+07
9.5197e+07
9.53491e+07
9.48542e+07
9.44183e+07
9.38348e+07
9.32542e+07
9.2643e+07
9.20341e+07
9.14178e+07
9.08073e+07
9.01878e+07
8.95834e+07
8.89529e+07
8.83106e+07
8.77262e+07
8.69392e+07
8.62884e+07
8.57905e+07
8.51779e+07
8.46154e+07
8.39906e+07
8.33866e+07
8.27678e+07
8.21543e+07
8.15377e+07
8.09223e+07
8.03063e+07
7.96905e+07
7.90747e+07
7.8459e+07
7.78433e+07
7.72279e+07
7.66126e+07
7.59978e+07
7.53829e+07
7.47685e+07
7.4153e+07
7.35348e+07
7.29153e+07
7.22848e+07
7.16608e+07
7.10599e+07
7.04515e+07
6.98329e+07
6.92149e+07
6.85946e+07
6.79757e+07
6.73576e+07
6.67403e+07
6.61238e+07
6.55076e+07
6.48918e+07
6.42761e+07
6.36605e+07
6.30449e+07
6.24293e+07
6.18138e+07
6.11982e+07
6.05826e+07
5.99671e+07
5.93516e+07
5.8736e+07
5.81204e+07
5.75049e+07
5.68891e+07
5.6274e+07
5.56569e+07
5.5043e+07
5.44199e+07
5.38095e+07
5.31609e+07
5.25427e+07
5.18547e+07
5.12573e+07
5.07483e+07
5.01168e+07
4.95268e+07
4.89256e+07
4.82927e+07
4.76738e+07
4.70571e+07
4.64431e+07
4.58299e+07
4.52165e+07
4.46026e+07
4.39885e+07
4.33741e+07
4.27599e+07
4.21459e+07
4.15326e+07
4.09187e+07
4.03059e+07
3.96899e+07
3.90733e+07
3.84638e+07
3.78504e+07
3.72347e+07
3.66208e+07
3.60058e+07
3.53911e+07
3.47762e+07
3.4161e+07
3.35457e+07
3.29301e+07
3.23145e+07
3.16987e+07
3.10831e+07
3.04674e+07
2.98518e+07
2.92361e+07
2.86204e+07
2.80047e+07
2.7389e+07
2.67733e+07
2.61577e+07
2.5542e+07
2.49263e+07
2.43106e+07
2.36949e+07
2.30793e+07
2.24637e+07
2.1848e+07
2.12325e+07
2.06169e+07
2.00013e+07
1.93857e+07
1.87701e+07
1.81546e+07
1.7539e+07
1.69235e+07
1.63079e+07
1.56924e+07
1.50769e+07
1.44613e+07
1.38458e+07
1.32304e+07
1.26149e+07
1.19995e+07
1.13841e+07
1.07687e+07
1.01534e+07
9.53814e+06
8.92287e+06
8.30776e+06
7.6927e+06
7.0779e+06
6.46333e+06
5.84929e+06
5.23637e+06
4.62342e+06
4.01235e+06
3.41024e+06
2.81777e+06
2.25445e+06
1.70849e+06
1.28687e+06
975467
7.96327e+07
8.37881e+07
8.43348e+07
8.37464e+07
8.34561e+07
8.28809e+07
8.24105e+07
8.18674e+07
8.13457e+07
8.08071e+07
8.0274e+07
7.97359e+07
7.92034e+07
7.86642e+07
7.8143e+07
7.76042e+07
7.71111e+07
7.66059e+07
7.55985e+07
7.51272e+07
7.49068e+07
7.43032e+07
7.38134e+07
7.32612e+07
7.27327e+07
7.21924e+07
7.16571e+07
7.11193e+07
7.05826e+07
7.00454e+07
6.95084e+07
6.89713e+07
6.84344e+07
6.78974e+07
6.73607e+07
6.6824e+07
6.62879e+07
6.57516e+07
6.5216e+07
6.468e+07
6.41421e+07
6.36048e+07
6.30553e+07
6.25081e+07
6.19852e+07
6.14529e+07
6.09111e+07
6.03719e+07
5.98308e+07
5.92914e+07
5.87526e+07
5.82145e+07
5.7677e+07
5.71397e+07
5.66027e+07
5.60657e+07
5.55289e+07
5.4992e+07
5.44552e+07
5.39184e+07
5.33816e+07
5.28448e+07
5.2308e+07
5.17712e+07
5.12344e+07
5.06976e+07
5.01609e+07
4.96238e+07
4.90874e+07
4.85495e+07
4.80146e+07
4.74724e+07
4.69448e+07
4.63796e+07
4.58824e+07
4.51584e+07
4.45767e+07
4.43165e+07
4.37666e+07
4.32102e+07
4.26822e+07
4.2126e+07
4.15869e+07
4.10506e+07
4.05155e+07
3.99809e+07
3.94458e+07
3.89103e+07
3.83746e+07
3.78387e+07
3.7303e+07
3.67674e+07
3.62326e+07
3.56971e+07
3.51634e+07
3.46266e+07
3.40884e+07
3.35581e+07
3.3023e+07
3.24857e+07
3.19508e+07
3.14144e+07
3.08786e+07
3.03424e+07
2.9806e+07
2.92696e+07
2.87329e+07
2.81963e+07
2.76595e+07
2.71228e+07
2.65861e+07
2.60495e+07
2.55128e+07
2.49761e+07
2.44394e+07
2.39028e+07
2.33661e+07
2.28296e+07
2.2293e+07
2.17564e+07
2.12198e+07
2.06833e+07
2.01468e+07
1.96104e+07
1.9074e+07
1.85376e+07
1.80013e+07
1.7465e+07
1.69288e+07
1.63926e+07
1.58565e+07
1.53204e+07
1.47844e+07
1.42485e+07
1.37126e+07
1.31769e+07
1.26412e+07
1.21056e+07
1.15702e+07
1.1035e+07
1.04999e+07
9.96501e+06
9.43033e+06
8.89602e+06
8.36201e+06
7.82831e+06
7.29523e+06
6.76267e+06
6.23093e+06
5.70016e+06
5.17085e+06
4.64416e+06
4.11836e+06
3.59468e+06
3.07736e+06
2.56071e+06
2.05395e+06
1.54979e+06
1.19528e+06
1.37466e+06
6.27979e+07
7.02107e+07
7.15445e+07
7.11634e+07
7.06679e+07
7.0044e+07
6.95543e+07
6.90527e+07
6.85921e+07
6.8129e+07
6.7676e+07
6.72207e+07
6.67724e+07
6.6316e+07
6.58945e+07
6.54166e+07
6.52208e+07
6.43924e+07
6.64763e+07
6.34645e+07
6.33994e+07
6.2685e+07
6.22571e+07
6.17705e+07
6.13214e+07
6.08638e+07
6.04122e+07
5.99587e+07
5.95063e+07
5.90536e+07
5.8601e+07
5.81484e+07
5.76959e+07
5.72433e+07
5.67909e+07
5.63385e+07
5.58866e+07
5.54347e+07
5.4984e+07
5.45335e+07
5.40824e+07
5.36332e+07
5.31673e+07
5.27027e+07
5.22663e+07
5.18167e+07
5.13559e+07
5.09005e+07
5.0444e+07
4.99896e+07
4.9536e+07
4.90828e+07
4.86301e+07
4.81775e+07
4.7725e+07
4.72726e+07
4.68202e+07
4.63678e+07
4.59154e+07
4.54631e+07
4.50107e+07
4.45584e+07
4.41061e+07
4.36537e+07
4.32014e+07
4.2749e+07
4.22968e+07
4.18443e+07
4.13925e+07
4.09396e+07
4.04903e+07
4.00357e+07
3.96044e+07
3.91364e+07
3.88447e+07
3.81542e+07
3.92279e+07
3.72628e+07
3.7036e+07
3.64341e+07
3.60054e+07
3.55229e+07
3.50702e+07
3.46207e+07
3.41707e+07
3.37206e+07
3.32698e+07
3.28183e+07
3.23667e+07
3.19149e+07
3.14633e+07
3.10119e+07
3.05614e+07
3.01103e+07
2.9662e+07
2.92092e+07
2.87541e+07
2.83108e+07
2.786e+07
2.74063e+07
2.69561e+07
2.65043e+07
2.60531e+07
2.56016e+07
2.51498e+07
2.46981e+07
2.42462e+07
2.37943e+07
2.33424e+07
2.28906e+07
2.24387e+07
2.19869e+07
2.15351e+07
2.10834e+07
2.06317e+07
2.01801e+07
1.97285e+07
1.9277e+07
1.88254e+07
1.8374e+07
1.79226e+07
1.74713e+07
1.70201e+07
1.6569e+07
1.61179e+07
1.56669e+07
1.52161e+07
1.47654e+07
1.43147e+07
1.38642e+07
1.34139e+07
1.29637e+07
1.25137e+07
1.20639e+07
1.16143e+07
1.1165e+07
1.07159e+07
1.0267e+07
9.81865e+06
9.37069e+06
8.92311e+06
8.47614e+06
8.02969e+06
7.58406e+06
7.13936e+06
6.69557e+06
6.25316e+06
5.81216e+06
5.37308e+06
4.9363e+06
4.50258e+06
4.07378e+06
3.64904e+06
3.22957e+06
2.81505e+06
2.40284e+06
2.00973e+06
1.65406e+06
1.50677e+06
1.70358e+06
4.88935e+07
5.67917e+07
5.88539e+07
5.87163e+07
5.82137e+07
5.7613e+07
5.71368e+07
5.66865e+07
5.62877e+07
5.58982e+07
5.55222e+07
5.51463e+07
5.47765e+07
5.43987e+07
5.40397e+07
5.36282e+07
5.33151e+07
5.26349e+07
5.22067e+07
5.22734e+07
5.18656e+07
5.14475e+07
5.10708e+07
5.06816e+07
5.03106e+07
4.99355e+07
4.95649e+07
4.9193e+07
4.88221e+07
4.84509e+07
4.80799e+07
4.77088e+07
4.73378e+07
4.69667e+07
4.65958e+07
4.62247e+07
4.58543e+07
4.54837e+07
4.51153e+07
4.47475e+07
4.43811e+07
4.40186e+07
4.36324e+07
4.32411e+07
4.28914e+07
4.25254e+07
4.21409e+07
4.17663e+07
4.13915e+07
4.10191e+07
4.06478e+07
4.02767e+07
3.9906e+07
3.95352e+07
3.91645e+07
3.87937e+07
3.8423e+07
3.80522e+07
3.76814e+07
3.73107e+07
3.694e+07
3.65692e+07
3.61985e+07
3.58278e+07
3.54571e+07
3.50864e+07
3.47158e+07
3.4345e+07
3.39748e+07
3.36039e+07
3.32358e+07
3.28648e+07
3.25056e+07
3.2135e+07
3.17952e+07
3.14268e+07
3.08132e+07
3.04894e+07
3.02818e+07
2.98868e+07
2.95518e+07
2.91592e+07
2.87881e+07
2.84254e+07
2.80581e+07
2.769e+07
2.73207e+07
2.69505e+07
2.65802e+07
2.62097e+07
2.58394e+07
2.54693e+07
2.51003e+07
2.47308e+07
2.43655e+07
2.3994e+07
2.36193e+07
2.32606e+07
2.28915e+07
2.25179e+07
2.21501e+07
2.17802e+07
2.14109e+07
2.10414e+07
2.06715e+07
2.03018e+07
1.9932e+07
1.95623e+07
1.91926e+07
1.8823e+07
1.84534e+07
1.80839e+07
1.77144e+07
1.7345e+07
1.69758e+07
1.66067e+07
1.62376e+07
1.58686e+07
1.54997e+07
1.51309e+07
1.47623e+07
1.43938e+07
1.40255e+07
1.36573e+07
1.32893e+07
1.29214e+07
1.25539e+07
1.21865e+07
1.18193e+07
1.14524e+07
1.10857e+07
1.07194e+07
1.03535e+07
9.98802e+06
9.62283e+06
9.25821e+06
8.89412e+06
8.53056e+06
8.16783e+06
7.80588e+06
7.44471e+06
7.0847e+06
6.72578e+06
6.36834e+06
6.0127e+06
5.6588e+06
5.30737e+06
4.95863e+06
4.61342e+06
4.27211e+06
3.9362e+06
3.60751e+06
3.28478e+06
2.97199e+06
2.67543e+06
2.37932e+06
2.12109e+06
1.91548e+06
1.87799e+06
1.91081e+06
3.65439e+07
4.35104e+07
4.57992e+07
4.58375e+07
4.54114e+07
4.48843e+07
4.4461e+07
4.40807e+07
4.37539e+07
4.34432e+07
4.31472e+07
4.28531e+07
4.25645e+07
4.22686e+07
4.19851e+07
4.16655e+07
4.13731e+07
4.09947e+07
4.07289e+07
4.05398e+07
4.02519e+07
3.99762e+07
3.96891e+07
3.93902e+07
3.91019e+07
3.88106e+07
3.85227e+07
3.82341e+07
3.79462e+07
3.76582e+07
3.73703e+07
3.70824e+07
3.67944e+07
3.65064e+07
3.62185e+07
3.59303e+07
3.56429e+07
3.53552e+07
3.50705e+07
3.47863e+07
3.45068e+07
3.42315e+07
3.39286e+07
3.36223e+07
3.33537e+07
3.30682e+07
3.27624e+07
3.247e+07
3.21791e+07
3.18905e+07
3.16033e+07
3.1316e+07
3.10289e+07
3.07416e+07
3.04543e+07
3.01668e+07
2.98793e+07
2.95918e+07
2.93043e+07
2.90168e+07
2.87293e+07
2.84419e+07
2.81544e+07
2.7867e+07
2.75796e+07
2.72921e+07
2.70049e+07
2.67174e+07
2.64306e+07
2.61432e+07
2.58581e+07
2.55707e+07
2.52905e+07
2.49999e+07
2.47049e+07
2.44107e+07
2.40524e+07
2.37701e+07
2.35216e+07
2.325e+07
2.29928e+07
2.26904e+07
2.24048e+07
2.21294e+07
2.18466e+07
2.15617e+07
2.12757e+07
2.09883e+07
2.07011e+07
2.04136e+07
2.01262e+07
1.98392e+07
1.95535e+07
1.92671e+07
1.89873e+07
1.86973e+07
1.84039e+07
1.81345e+07
1.78487e+07
1.75569e+07
1.72729e+07
1.6987e+07
1.67013e+07
1.64158e+07
1.61297e+07
1.5844e+07
1.55581e+07
1.52725e+07
1.49869e+07
1.47015e+07
1.44161e+07
1.41309e+07
1.38458e+07
1.35608e+07
1.32761e+07
1.29915e+07
1.2707e+07
1.24227e+07
1.21386e+07
1.18547e+07
1.15711e+07
1.12876e+07
1.10044e+07
1.07215e+07
1.04388e+07
1.01565e+07
9.87463e+06
9.59307e+06
9.31189e+06
9.03113e+06
8.7509e+06
8.47121e+06
8.19216e+06
7.91381e+06
7.63604e+06
7.35915e+06
7.08319e+06
6.80819e+06
6.53444e+06
6.26197e+06
5.9908e+06
5.72148e+06
5.45401e+06
5.18878e+06
4.9263e+06
4.66655e+06
4.41044e+06
4.15841e+06
3.91137e+06
3.66974e+06
3.43446e+06
3.20887e+06
2.98252e+06
2.80292e+06
2.61977e+06
2.42864e+06
2.29354e+06
2.19442e+06
2.18559e+06
2.02782e+06
2.56194e+07
3.07602e+07
3.28152e+07
3.29416e+07
3.2631e+07
3.22204e+07
3.18845e+07
3.15929e+07
3.13476e+07
3.11198e+07
3.09053e+07
3.06932e+07
3.04852e+07
3.02711e+07
3.00639e+07
2.98332e+07
2.96218e+07
2.93912e+07
2.91858e+07
2.90188e+07
2.88257e+07
2.86405e+07
2.84327e+07
2.82234e+07
2.80169e+07
2.78093e+07
2.76038e+07
2.73977e+07
2.71924e+07
2.69868e+07
2.67814e+07
2.65759e+07
2.63704e+07
2.61648e+07
2.59592e+07
2.57532e+07
2.55481e+07
2.53421e+07
2.51403e+07
2.49381e+07
2.47459e+07
2.45615e+07
2.43475e+07
2.41087e+07
2.39194e+07
2.37241e+07
2.34933e+07
2.32825e+07
2.30757e+07
2.28702e+07
2.26667e+07
2.24624e+07
2.22584e+07
2.20539e+07
2.18493e+07
2.16446e+07
2.14398e+07
2.12349e+07
2.10301e+07
2.08253e+07
2.06205e+07
2.04157e+07
2.02109e+07
2.00062e+07
1.98015e+07
1.95968e+07
1.93923e+07
1.91877e+07
1.89835e+07
1.8779e+07
1.8576e+07
1.83715e+07
1.817e+07
1.79632e+07
1.77484e+07
1.75341e+07
1.73018e+07
1.70964e+07
1.68901e+07
1.66999e+07
1.65303e+07
1.63176e+07
1.61099e+07
1.59237e+07
1.57251e+07
1.55225e+07
1.53193e+07
1.51143e+07
1.49098e+07
1.4705e+07
1.45001e+07
1.42957e+07
1.40924e+07
1.38885e+07
1.36934e+07
1.3487e+07
1.32773e+07
1.30937e+07
1.28903e+07
1.26796e+07
1.24794e+07
1.22778e+07
1.20754e+07
1.18738e+07
1.16712e+07
1.14693e+07
1.12673e+07
1.10657e+07
1.08642e+07
1.06629e+07
1.04618e+07
1.02608e+07
1.00601e+07
9.85969e+06
9.65953e+06
9.45968e+06
9.25997e+06
9.06057e+06
8.86144e+06
8.66268e+06
8.46438e+06
8.26641e+06
8.06879e+06
7.87162e+06
7.67489e+06
7.4787e+06
7.28313e+06
7.08811e+06
6.89371e+06
6.69998e+06
6.50707e+06
6.31499e+06
6.12386e+06
5.93379e+06
5.74466e+06
5.55679e+06
5.37032e+06
5.18529e+06
5.00196e+06
4.82045e+06
4.64082e+06
4.46371e+06
4.28912e+06
4.11737e+06
3.94911e+06
3.78431e+06
3.62384e+06
3.46812e+06
3.31806e+06
3.17329e+06
3.03743e+06
2.90411e+06
2.79428e+06
2.60059e+06
2.59077e+06
2.50927e+06
2.46392e+06
2.42766e+06
2.41443e+06
2.09627e+06
1.56321e+07
1.82978e+07
1.98084e+07
1.99539e+07
1.97552e+07
1.94814e+07
1.92543e+07
1.90658e+07
1.89106e+07
1.87705e+07
1.86402e+07
1.85118e+07
1.83862e+07
1.82559e+07
1.81291e+07
1.79895e+07
1.78543e+07
1.774e+07
1.76539e+07
1.7511e+07
1.73842e+07
1.72876e+07
1.71648e+07
1.7043e+07
1.69201e+07
1.67967e+07
1.66744e+07
1.65518e+07
1.64296e+07
1.63073e+07
1.61852e+07
1.60629e+07
1.59407e+07
1.58182e+07
1.56958e+07
1.55728e+07
1.54506e+07
1.53269e+07
1.52079e+07
1.50859e+07
1.49808e+07
1.48758e+07
1.47688e+07
1.46484e+07
1.44964e+07
1.43698e+07
1.42286e+07
1.40998e+07
1.39803e+07
1.38587e+07
1.37399e+07
1.36195e+07
1.34994e+07
1.33786e+07
1.32577e+07
1.31366e+07
1.30155e+07
1.28943e+07
1.27731e+07
1.26519e+07
1.25308e+07
1.24097e+07
1.22887e+07
1.21677e+07
1.20468e+07
1.19259e+07
1.18052e+07
1.16844e+07
1.15641e+07
1.14434e+07
1.13238e+07
1.12028e+07
1.10826e+07
1.09593e+07
1.08246e+07
1.07093e+07
1.05958e+07
1.04476e+07
1.03084e+07
1.01938e+07
1.00785e+07
9.98426e+06
9.87087e+06
9.76465e+06
9.65232e+06
9.53177e+06
9.41301e+06
9.29179e+06
9.17149e+06
9.05087e+06
8.93014e+06
8.80985e+06
8.69018e+06
8.56981e+06
8.46191e+06
8.33504e+06
8.20834e+06
8.12065e+06
8.00099e+06
7.87488e+06
7.75772e+06
7.64335e+06
7.5255e+06
7.40999e+06
7.2929e+06
7.17693e+06
7.06081e+06
6.94528e+06
6.82995e+06
6.715e+06
6.6003e+06
6.48591e+06
6.37195e+06
6.25838e+06
6.14523e+06
6.03252e+06
5.9201e+06
5.80817e+06
5.69671e+06
5.58578e+06
5.4755e+06
5.36573e+06
5.25651e+06
5.14796e+06
5.04007e+06
4.93296e+06
4.82669e+06
4.7212e+06
4.6166e+06
4.51291e+06
4.41031e+06
4.30883e+06
4.20854e+06
4.10958e+06
4.01181e+06
3.91556e+06
3.82096e+06
3.72799e+06
3.63684e+06
3.54765e+06
3.46045e+06
3.37573e+06
3.29341e+06
3.21359e+06
3.13683e+06
3.06297e+06
2.99245e+06
2.92547e+06
2.8626e+06
2.80327e+06
2.75165e+06
2.70067e+06
2.67509e+06
2.62777e+06
2.58032e+06
2.58483e+06
2.59288e+06
2.59338e+06
2.55899e+06
2.12845e+06
7.13698e+06
6.08163e+06
7.17172e+06
7.34608e+06
7.22266e+06
7.06429e+06
6.9311e+06
6.84267e+06
6.77581e+06
6.72441e+06
6.6793e+06
6.63641e+06
6.59543e+06
6.55072e+06
6.50994e+06
6.46141e+06
6.42413e+06
6.40812e+06
6.37949e+06
6.309e+06
6.28084e+06
6.26121e+06
6.22164e+06
6.18628e+06
6.14746e+06
6.10962e+06
6.07186e+06
6.03428e+06
5.99694e+06
5.95961e+06
5.92238e+06
5.88509e+06
5.84781e+06
5.81031e+06
5.77281e+06
5.73456e+06
5.69678e+06
5.6566e+06
5.62016e+06
5.57743e+06
5.55329e+06
5.54224e+06
5.53717e+06
5.58324e+06
5.43399e+06
5.38756e+06
5.33597e+06
5.28401e+06
5.2552e+06
5.21811e+06
5.18587e+06
5.151e+06
5.11677e+06
5.08173e+06
5.0467e+06
5.01146e+06
4.97621e+06
4.94096e+06
4.90578e+06
4.87067e+06
4.83567e+06
4.80076e+06
4.76596e+06
4.73126e+06
4.6967e+06
4.6622e+06
4.62788e+06
4.59357e+06
4.55965e+06
4.52536e+06
4.49189e+06
4.45674e+06
4.42262e+06
4.38547e+06
4.34626e+06
4.32282e+06
4.29514e+06
4.24257e+06
4.18387e+06
4.15528e+06
4.04495e+06
4.09885e+06
4.07938e+06
4.05764e+06
4.03934e+06
4.00342e+06
3.97326e+06
3.93942e+06
3.90716e+06
3.87429e+06
3.84155e+06
3.80796e+06
3.77585e+06
3.73679e+06
3.71843e+06
3.67912e+06
3.65195e+06
3.64625e+06
3.61105e+06
3.5799e+06
3.54476e+06
3.5234e+06
3.49261e+06
3.46674e+06
3.43821e+06
3.41122e+06
3.3839e+06
3.35722e+06
3.33068e+06
3.30451e+06
3.27862e+06
3.25307e+06
3.22791e+06
3.20311e+06
3.17864e+06
3.15455e+06
3.13072e+06
3.10731e+06
3.08425e+06
3.06157e+06
3.03935e+06
3.01749e+06
2.99597e+06
2.97489e+06
2.95421e+06
2.934e+06
2.91429e+06
2.89496e+06
2.87608e+06
2.85762e+06
2.83972e+06
2.82232e+06
2.80545e+06
2.78912e+06
2.77315e+06
2.75779e+06
2.743e+06
2.72867e+06
2.7149e+06
2.70173e+06
2.68901e+06
2.67702e+06
2.66557e+06
2.65458e+06
2.64442e+06
2.63482e+06
2.62579e+06
2.61747e+06
2.61013e+06
2.6031e+06
2.5988e+06
2.59268e+06
2.59491e+06
2.58598e+06
2.60203e+06
2.62757e+06
2.66445e+06
2.67866e+06
2.63498e+06
2.14083e+06
7.13796e+06
6.08336e+06
7.17348e+06
7.34789e+06
7.22452e+06
7.06624e+06
6.93318e+06
6.84515e+06
6.77885e+06
6.72894e+06
6.6857e+06
6.64728e+06
6.61109e+06
6.57722e+06
6.54639e+06
6.51326e+06
6.4892e+06
6.43447e+06
6.36644e+06
6.34584e+06
6.32131e+06
6.2708e+06
6.22965e+06
6.18875e+06
6.14924e+06
6.1115e+06
6.07353e+06
6.03625e+06
5.99881e+06
5.96162e+06
5.92441e+06
5.88738e+06
5.85042e+06
5.81377e+06
5.77718e+06
5.74143e+06
5.70483e+06
5.67096e+06
5.62949e+06
5.6011e+06
5.51498e+06
5.51895e+06
5.15513e+06
5.18697e+06
5.6076e+06
5.42364e+06
5.3817e+06
5.32509e+06
5.27732e+06
5.23717e+06
5.19677e+06
5.15913e+06
5.12172e+06
5.08528e+06
5.04913e+06
5.01339e+06
4.97785e+06
4.9425e+06
4.90726e+06
4.87213e+06
4.83709e+06
4.80218e+06
4.76738e+06
4.73272e+06
4.69815e+06
4.66368e+06
4.62927e+06
4.59494e+06
4.56066e+06
4.52635e+06
4.49223e+06
4.45762e+06
4.42489e+06
4.39083e+06
4.36302e+06
4.33754e+06
4.2798e+06
4.28512e+06
4.23807e+06
4.44426e+06
4.33758e+06
3.98238e+06
4.06927e+06
4.03425e+06
4.0195e+06
3.99418e+06
3.96561e+06
3.93698e+06
3.90768e+06
3.87798e+06
3.85006e+06
3.81867e+06
3.79529e+06
3.75434e+06
3.73216e+06
3.68675e+06
3.60535e+06
3.63013e+06
3.59761e+06
3.58145e+06
3.54074e+06
3.5177e+06
3.49039e+06
3.46409e+06
3.43753e+06
3.41076e+06
3.38413e+06
3.3575e+06
3.33111e+06
3.30496e+06
3.27915e+06
3.2537e+06
3.22856e+06
3.20367e+06
3.17913e+06
3.15496e+06
3.13118e+06
3.10781e+06
3.08476e+06
3.06203e+06
3.0397e+06
3.01781e+06
2.99633e+06
2.97526e+06
2.95457e+06
2.93432e+06
2.91457e+06
2.89526e+06
2.87635e+06
2.85787e+06
2.83995e+06
2.82254e+06
2.80566e+06
2.78931e+06
2.77334e+06
2.75796e+06
2.74312e+06
2.72877e+06
2.71503e+06
2.70186e+06
2.68915e+06
2.67708e+06
2.66564e+06
2.65471e+06
2.64451e+06
2.63498e+06
2.62597e+06
2.61767e+06
2.61034e+06
2.60326e+06
2.59849e+06
2.59227e+06
2.59118e+06
2.59139e+06
2.60411e+06
2.6279e+06
2.6646e+06
2.67672e+06
2.63432e+06
2.1419e+06
1.56335e+07
1.82995e+07
1.98103e+07
1.99559e+07
1.97573e+07
1.94835e+07
1.92565e+07
1.90684e+07
1.89137e+07
1.87751e+07
1.86465e+07
1.85226e+07
1.84013e+07
1.8282e+07
1.81642e+07
1.80439e+07
1.79261e+07
1.7786e+07
1.76457e+07
1.75425e+07
1.74259e+07
1.72948e+07
1.71706e+07
1.70449e+07
1.69215e+07
1.67987e+07
1.66761e+07
1.65539e+07
1.64316e+07
1.63095e+07
1.61874e+07
1.60654e+07
1.59435e+07
1.58219e+07
1.57003e+07
1.55799e+07
1.5459e+07
1.53425e+07
1.52207e+07
1.51254e+07
1.49829e+07
1.50565e+07
1.46343e+07
1.67171e+07
1.43889e+07
1.45675e+07
1.42506e+07
1.41492e+07
1.40006e+07
1.38783e+07
1.37509e+07
1.36279e+07
1.35046e+07
1.33824e+07
1.32604e+07
1.31388e+07
1.30173e+07
1.2896e+07
1.27748e+07
1.26536e+07
1.25324e+07
1.24114e+07
1.22903e+07
1.21694e+07
1.20485e+07
1.19277e+07
1.18068e+07
1.1686e+07
1.15652e+07
1.14445e+07
1.13239e+07
1.12033e+07
1.10839e+07
1.09636e+07
1.08451e+07
1.07248e+07
1.05714e+07
1.04703e+07
1.02323e+07
1.03151e+07
8.67041e+06
1.0074e+07
9.75068e+06
9.75927e+06
9.62516e+06
9.52333e+06
9.40442e+06
9.28934e+06
9.17224e+06
9.05516e+06
8.94011e+06
8.82164e+06
8.71432e+06
8.58783e+06
8.50815e+06
8.37072e+06
8.17867e+06
8.06887e+06
8.00467e+06
7.8728e+06
7.75699e+06
7.63447e+06
7.52322e+06
7.40645e+06
7.2922e+06
7.17641e+06
7.06121e+06
6.94573e+06
6.8306e+06
6.71567e+06
6.6011e+06
6.48685e+06
6.37292e+06
6.25925e+06
6.14598e+06
6.03315e+06
5.92083e+06
5.80897e+06
5.69752e+06
5.58655e+06
5.47609e+06
5.36629e+06
5.25713e+06
5.14859e+06
5.04069e+06
4.93353e+06
4.8272e+06
4.72174e+06
4.6171e+06
4.51337e+06
4.41075e+06
4.30926e+06
4.20899e+06
4.10996e+06
4.01218e+06
3.9159e+06
3.82123e+06
3.72824e+06
3.63711e+06
3.54791e+06
3.46076e+06
3.37592e+06
3.2936e+06
3.21388e+06
3.13703e+06
3.06337e+06
2.99289e+06
2.92595e+06
2.86302e+06
2.80364e+06
2.7494e+06
2.69786e+06
2.65469e+06
2.61822e+06
2.594e+06
2.58408e+06
2.59479e+06
2.59258e+06
2.56069e+06
2.12793e+06
2.56209e+07
3.0762e+07
3.28172e+07
3.29437e+07
3.26331e+07
3.22226e+07
3.18867e+07
3.15954e+07
3.13505e+07
3.11239e+07
3.09107e+07
3.07023e+07
3.0497e+07
3.02933e+07
3.00905e+07
2.98849e+07
2.96804e+07
2.94597e+07
2.92399e+07
2.90506e+07
2.88499e+07
2.86388e+07
2.84321e+07
2.82237e+07
2.80172e+07
2.78111e+07
2.76054e+07
2.73999e+07
2.71944e+07
2.6989e+07
2.67836e+07
2.65783e+07
2.6373e+07
2.61681e+07
2.59632e+07
2.57593e+07
2.55552e+07
2.53544e+07
2.51512e+07
2.49605e+07
2.47603e+07
2.45819e+07
2.44319e+07
2.38531e+07
2.36596e+07
2.37213e+07
2.34738e+07
2.33051e+07
2.30873e+07
2.28845e+07
2.26751e+07
2.24693e+07
2.22628e+07
2.20572e+07
2.18518e+07
2.16466e+07
2.14416e+07
2.12367e+07
2.10318e+07
2.0827e+07
2.06221e+07
2.04174e+07
2.02126e+07
2.00079e+07
1.98032e+07
1.95986e+07
1.93939e+07
1.91893e+07
1.89847e+07
1.87801e+07
1.85757e+07
1.83713e+07
1.81677e+07
1.79632e+07
1.77591e+07
1.75516e+07
1.73257e+07
1.71227e+07
1.69106e+07
1.66639e+07
1.6723e+07
1.65174e+07
1.61208e+07
1.59457e+07
1.57149e+07
1.55194e+07
1.53138e+07
1.51131e+07
1.49109e+07
1.47087e+07
1.45091e+07
1.43051e+07
1.41197e+07
1.38995e+07
1.38292e+07
1.3438e+07
1.44403e+07
1.31994e+07
1.29379e+07
1.26586e+07
1.24808e+07
1.22677e+07
1.2074e+07
1.18707e+07
1.1671e+07
1.14691e+07
1.12679e+07
1.10663e+07
1.08649e+07
1.06637e+07
1.04626e+07
1.02618e+07
1.00611e+07
9.8606e+06
9.66034e+06
9.46037e+06
9.26076e+06
9.06141e+06
8.8623e+06
8.66349e+06
8.46504e+06
8.26704e+06
8.06947e+06
7.87229e+06
7.67555e+06
7.47935e+06
7.28371e+06
7.0887e+06
6.89427e+06
6.70049e+06
6.50758e+06
6.31552e+06
6.12439e+06
5.93422e+06
5.74507e+06
5.55716e+06
5.37068e+06
5.18566e+06
5.00227e+06
4.8207e+06
4.64118e+06
4.46399e+06
4.2894e+06
4.11772e+06
3.9493e+06
3.78481e+06
3.62449e+06
3.46886e+06
3.31888e+06
3.17473e+06
3.03829e+06
2.90811e+06
2.78881e+06
2.68032e+06
2.58512e+06
2.50976e+06
2.46387e+06
2.4277e+06
2.41128e+06
2.09459e+06
3.65455e+07
4.35122e+07
4.58012e+07
4.58395e+07
4.54134e+07
4.48865e+07
4.44631e+07
4.4083e+07
4.37564e+07
4.34466e+07
4.31512e+07
4.28598e+07
4.25716e+07
4.22841e+07
4.19972e+07
4.17075e+07
4.14182e+07
4.1118e+07
4.08203e+07
4.0544e+07
4.02592e+07
3.99682e+07
3.96795e+07
3.93894e+07
3.91008e+07
3.88123e+07
3.85242e+07
3.82362e+07
3.79482e+07
3.76603e+07
3.73724e+07
3.70846e+07
3.67968e+07
3.65093e+07
3.62217e+07
3.5935e+07
3.5648e+07
3.53637e+07
3.50771e+07
3.47978e+07
3.45069e+07
3.42025e+07
3.39188e+07
3.35545e+07
3.32319e+07
3.30194e+07
3.27393e+07
3.24782e+07
3.21839e+07
3.18994e+07
3.16088e+07
3.13209e+07
3.10322e+07
3.07444e+07
3.04564e+07
3.01688e+07
2.98811e+07
2.95936e+07
2.9306e+07
2.90185e+07
2.8731e+07
2.84436e+07
2.81561e+07
2.78687e+07
2.75813e+07
2.72939e+07
2.70065e+07
2.67191e+07
2.64317e+07
2.61444e+07
2.58572e+07
2.557e+07
2.52833e+07
2.49959e+07
2.47081e+07
2.44185e+07
2.41173e+07
2.38362e+07
2.35677e+07
2.32788e+07
2.30447e+07
2.27832e+07
2.24428e+07
2.21511e+07
2.1845e+07
2.15625e+07
2.12733e+07
2.09884e+07
2.07024e+07
2.04162e+07
2.0132e+07
1.98425e+07
1.95637e+07
1.92465e+07
1.89925e+07
1.84689e+07
1.83334e+07
1.69887e+07
1.79271e+07
1.74436e+07
1.72758e+07
1.6971e+07
1.67009e+07
1.64132e+07
1.613e+07
1.5844e+07
1.55589e+07
1.52732e+07
1.49877e+07
1.47023e+07
1.4417e+07
1.41318e+07
1.38468e+07
1.35617e+07
1.32769e+07
1.29923e+07
1.27078e+07
1.24236e+07
1.21394e+07
1.18555e+07
1.15717e+07
1.12883e+07
1.10051e+07
1.07222e+07
1.04395e+07
1.01572e+07
9.87525e+06
9.59366e+06
9.31244e+06
9.03166e+06
8.75146e+06
8.47179e+06
8.19269e+06
7.91424e+06
7.63649e+06
7.35954e+06
7.08358e+06
6.80864e+06
6.53479e+06
6.26222e+06
5.99116e+06
5.72178e+06
5.45432e+06
5.18916e+06
4.92655e+06
4.66705e+06
4.411e+06
4.15907e+06
3.9124e+06
3.67118e+06
3.43742e+06
3.21066e+06
2.9955e+06
2.79102e+06
2.59847e+06
2.42633e+06
2.29066e+06
2.19262e+06
2.18181e+06
2.02719e+06
4.88952e+07
5.67936e+07
5.8856e+07
5.87184e+07
5.82158e+07
5.76151e+07
5.7139e+07
5.66888e+07
5.62899e+07
5.5901e+07
5.55247e+07
5.51506e+07
5.47788e+07
5.44071e+07
5.40356e+07
5.36615e+07
5.32876e+07
5.29067e+07
5.25281e+07
5.2165e+07
5.17964e+07
5.1424e+07
5.10528e+07
5.06804e+07
5.03089e+07
4.99374e+07
4.95662e+07
4.91951e+07
4.8824e+07
4.8453e+07
4.80819e+07
4.77109e+07
4.73399e+07
4.6969e+07
4.65981e+07
4.62277e+07
4.5857e+07
4.54878e+07
4.51172e+07
4.47485e+07
4.43759e+07
4.39846e+07
4.36032e+07
4.31974e+07
4.28231e+07
4.24746e+07
4.21121e+07
4.1761e+07
4.13889e+07
4.1022e+07
4.06498e+07
4.02795e+07
3.99082e+07
3.95374e+07
3.91664e+07
3.87956e+07
3.84247e+07
3.8054e+07
3.76832e+07
3.73124e+07
3.69417e+07
3.65709e+07
3.62002e+07
3.58295e+07
3.54588e+07
3.50881e+07
3.47174e+07
3.43467e+07
3.3976e+07
3.36054e+07
3.32348e+07
3.28643e+07
3.24941e+07
3.21233e+07
3.17522e+07
3.13798e+07
3.10022e+07
3.06362e+07
3.02853e+07
2.99239e+07
2.95789e+07
2.92111e+07
2.8825e+07
2.84493e+07
2.80648e+07
2.76951e+07
2.73219e+07
2.69522e+07
2.65818e+07
2.62113e+07
2.58424e+07
2.54688e+07
2.51018e+07
2.4711e+07
2.43324e+07
2.39049e+07
2.35221e+07
2.34095e+07
2.30218e+07
2.25094e+07
2.21688e+07
2.1776e+07
2.14138e+07
2.10408e+07
2.06728e+07
2.03024e+07
1.9933e+07
1.95631e+07
1.91935e+07
1.88238e+07
1.84543e+07
1.80848e+07
1.77154e+07
1.73459e+07
1.69767e+07
1.66075e+07
1.62384e+07
1.58695e+07
1.55005e+07
1.51317e+07
1.4763e+07
1.43946e+07
1.40262e+07
1.3658e+07
1.32899e+07
1.29221e+07
1.25545e+07
1.2187e+07
1.18198e+07
1.14529e+07
1.10863e+07
1.072e+07
1.0354e+07
9.98845e+06
9.62332e+06
9.25861e+06
8.89449e+06
8.53103e+06
8.16821e+06
7.80618e+06
7.44506e+06
7.08496e+06
6.72608e+06
6.36877e+06
6.013e+06
5.65917e+06
5.30777e+06
4.95914e+06
4.61421e+06
4.27311e+06
3.93768e+06
3.60759e+06
3.28716e+06
2.97328e+06
2.66804e+06
2.38017e+06
2.12064e+06
1.91359e+06
1.87364e+06
1.91019e+06
6.27997e+07
7.02126e+07
7.15465e+07
7.11655e+07
7.067e+07
7.00461e+07
6.95564e+07
6.90549e+07
6.85941e+07
6.81312e+07
6.76773e+07
6.72225e+07
6.67691e+07
6.63149e+07
6.58605e+07
6.54037e+07
6.49469e+07
6.44861e+07
6.40277e+07
6.35803e+07
6.31296e+07
6.2677e+07
6.22248e+07
6.17716e+07
6.13189e+07
6.08661e+07
6.04134e+07
5.99608e+07
5.95082e+07
5.90556e+07
5.8603e+07
5.81504e+07
5.76978e+07
5.72452e+07
5.67925e+07
5.634e+07
5.5887e+07
5.54346e+07
5.49808e+07
5.45262e+07
5.40702e+07
5.35944e+07
5.31466e+07
5.27025e+07
5.22195e+07
5.1764e+07
5.13257e+07
5.08861e+07
5.04354e+07
4.99872e+07
4.95349e+07
4.90836e+07
4.86312e+07
4.81791e+07
4.77267e+07
4.72743e+07
4.6822e+07
4.63696e+07
4.59172e+07
4.54648e+07
4.50124e+07
4.45601e+07
4.41077e+07
4.36554e+07
4.32031e+07
4.27507e+07
4.22983e+07
4.1846e+07
4.13936e+07
4.09413e+07
4.04891e+07
4.00368e+07
3.95848e+07
3.91325e+07
3.86799e+07
3.82272e+07
3.77728e+07
3.73258e+07
3.68942e+07
3.64413e+07
3.59857e+07
3.55549e+07
3.51053e+07
3.46438e+07
3.41828e+07
3.37293e+07
3.3274e+07
3.28215e+07
3.23686e+07
3.19155e+07
3.14637e+07
3.10079e+07
3.05567e+07
3.00906e+07
2.9636e+07
2.91768e+07
2.87259e+07
2.83545e+07
2.79129e+07
2.7424e+07
2.69723e+07
2.65054e+07
2.60578e+07
2.56026e+07
2.51519e+07
2.46991e+07
2.42474e+07
2.37952e+07
2.33434e+07
2.28915e+07
2.24397e+07
2.19878e+07
2.1536e+07
2.10843e+07
2.06326e+07
2.01809e+07
1.97293e+07
1.92778e+07
1.88262e+07
1.83747e+07
1.79234e+07
1.74721e+07
1.70208e+07
1.65696e+07
1.61185e+07
1.56676e+07
1.52167e+07
1.47659e+07
1.43153e+07
1.38648e+07
1.34145e+07
1.29643e+07
1.25142e+07
1.20644e+07
1.16148e+07
1.11654e+07
1.07162e+07
1.02675e+07
9.81907e+06
9.37101e+06
8.92342e+06
8.47641e+06
8.03004e+06
7.58447e+06
7.13962e+06
6.69583e+06
6.25342e+06
5.81239e+06
5.37344e+06
4.93659e+06
4.5033e+06
4.07265e+06
3.64918e+06
3.22841e+06
2.81347e+06
2.40422e+06
2.00823e+06
1.65251e+06
1.50253e+06
1.70294e+06
7.96347e+07
8.37902e+07
8.43369e+07
8.37485e+07
8.34582e+07
8.28831e+07
8.24127e+07
8.18696e+07
8.13477e+07
8.08091e+07
8.02746e+07
7.97363e+07
7.91983e+07
7.86588e+07
7.81185e+07
7.75759e+07
7.70332e+07
7.64883e+07
7.59462e+07
7.54128e+07
7.4878e+07
7.43421e+07
7.38063e+07
7.32693e+07
7.27325e+07
7.21955e+07
7.16585e+07
7.11214e+07
7.05844e+07
7.00474e+07
6.95103e+07
6.89733e+07
6.84361e+07
6.7899e+07
6.73617e+07
6.68243e+07
6.62861e+07
6.57479e+07
6.5208e+07
6.46661e+07
6.41247e+07
6.35713e+07
6.30358e+07
6.2513e+07
6.19619e+07
6.14101e+07
6.08794e+07
6.03503e+07
5.98164e+07
5.92844e+07
5.87488e+07
5.82137e+07
5.76773e+07
5.7141e+07
5.66042e+07
5.60675e+07
5.55307e+07
5.49939e+07
5.4457e+07
5.39202e+07
5.33833e+07
5.28465e+07
5.23097e+07
5.17729e+07
5.1236e+07
5.06992e+07
5.01623e+07
4.96255e+07
4.90886e+07
4.85518e+07
4.8015e+07
4.74782e+07
4.69415e+07
4.64047e+07
4.58679e+07
4.53316e+07
4.47957e+07
4.42645e+07
4.37435e+07
4.3209e+07
4.26655e+07
4.214e+07
4.16146e+07
4.10741e+07
4.05321e+07
3.99932e+07
3.9453e+07
3.8915e+07
3.83768e+07
3.78384e+07
3.73012e+07
3.67607e+07
3.62236e+07
3.56794e+07
3.51381e+07
3.46138e+07
3.41003e+07
3.35873e+07
3.30423e+07
3.25035e+07
3.19674e+07
3.14206e+07
3.08855e+07
3.03451e+07
2.98088e+07
2.9271e+07
2.87343e+07
2.81973e+07
2.76605e+07
2.71238e+07
2.65871e+07
2.60503e+07
2.55136e+07
2.49769e+07
2.44403e+07
2.39036e+07
2.3367e+07
2.28304e+07
2.22937e+07
2.17571e+07
2.12206e+07
2.06841e+07
2.01476e+07
1.96111e+07
1.90746e+07
1.85383e+07
1.8002e+07
1.74656e+07
1.69294e+07
1.63932e+07
1.58571e+07
1.5321e+07
1.47849e+07
1.4249e+07
1.37131e+07
1.31773e+07
1.26416e+07
1.21061e+07
1.15706e+07
1.10353e+07
1.05002e+07
9.96537e+06
9.43069e+06
8.89633e+06
8.36227e+06
7.82849e+06
7.29533e+06
6.76267e+06
6.23082e+06
5.69962e+06
5.17032e+06
4.64139e+06
4.11811e+06
3.59199e+06
3.0771e+06
2.57461e+06
2.05547e+06
1.54575e+06
1.19199e+06
1.37384e+06
9.88034e+07
9.42762e+07
9.58779e+07
9.5199e+07
9.53513e+07
9.48564e+07
9.44205e+07
9.38371e+07
9.32562e+07
9.2645e+07
9.20344e+07
9.14177e+07
9.08008e+07
9.01817e+07
8.95613e+07
8.89384e+07
8.8315e+07
8.76903e+07
8.70695e+07
8.64572e+07
8.58448e+07
8.52312e+07
8.46174e+07
8.40022e+07
8.33869e+07
8.27712e+07
8.21556e+07
8.15398e+07
8.09241e+07
8.03083e+07
7.96925e+07
7.90766e+07
7.84607e+07
7.78448e+07
7.72286e+07
7.66122e+07
7.59946e+07
7.53766e+07
7.47562e+07
7.4133e+07
7.35113e+07
7.28795e+07
7.22779e+07
7.1689e+07
7.10497e+07
7.04084e+07
6.9796e+07
6.91868e+07
6.85751e+07
6.79655e+07