/*--------------------------------*- C++ -*----------------------------------*\
| =========                 |                                                 |
| \\      /  F ield         | OpenFOAM: The Open Source CFD Toolbox           |
|  \\    /   O peration     | Version:  v1912                                 |
|   \\  /    A nd           | Website:  www.openfoam.com                      |
|    \\/     M anipulation  |                                                 |
\*---------------------------------------------------------------------------*/
FoamFile
{
    version     2.0;
    format      ascii;
    class       volScalarField;
    location    "1";
    object      sigmaHyd;
}
// * * * * * * * * * * * * * * * * * * * * * * * * * * * * * * * * * * * * * //

dimensions      [1 -1 -2 0 0 0 0];


internalField   nonuniform List<scalar> 
2560
(
-5.25741e+07
-4.66098e+07
-4.75074e+07
-4.71247e+07
-4.7253e+07
-4.70179e+07
-4.68115e+07
-4.65248e+07
-4.62386e+07
-4.59362e+07
-4.56342e+07
-4.53292e+07
-4.50245e+07
-4.47193e+07
-4.44142e+07
-4.4109e+07
-4.38039e+07
-4.34988e+07
-4.31938e+07
-4.28886e+07
-4.25842e+07
-4.22788e+07
-4.19762e+07
-4.16691e+07
-4.13715e+07
-4.10551e+07
-4.07562e+07
-4.0424e+07
-3.99929e+07
-3.97737e+07
-3.9511e+07
-3.91853e+07
-3.89031e+07
-3.85877e+07
-3.82843e+07
-3.79751e+07
-3.76717e+07
-3.73682e+07
-3.70657e+07
-3.67633e+07
-3.6461e+07
-3.61574e+07
-3.58533e+07
-3.55452e+07
-3.52361e+07
-3.49335e+07
-3.46343e+07
-3.4332e+07
-3.40287e+07
-3.37245e+07
-3.34194e+07
-3.31144e+07
-3.28091e+07
-3.25039e+07
-3.21984e+07
-3.18925e+07
-3.15857e+07
-3.12784e+07
-3.09696e+07
-3.0663e+07
-3.03607e+07
-3.00581e+07
-2.97532e+07
-2.94482e+07
-2.91424e+07
-2.88367e+07
-2.85312e+07
-2.82259e+07
-2.79207e+07
-2.76157e+07
-2.73107e+07
-2.70057e+07
-2.67007e+07
-2.63958e+07
-2.60908e+07
-2.57859e+07
-2.54809e+07
-2.51758e+07
-2.48708e+07
-2.45657e+07
-2.42606e+07
-2.39555e+07
-2.36504e+07
-2.33453e+07
-2.30402e+07
-2.27351e+07
-2.24301e+07
-2.21248e+07
-2.18199e+07
-2.15135e+07
-2.12077e+07
-2.08991e+07
-2.0588e+07
-2.02849e+07
-1.9974e+07
-1.96734e+07
-1.9363e+07
-1.90607e+07
-1.87594e+07
-1.84664e+07
-1.8156e+07
-1.78707e+07
-1.76054e+07
-1.72435e+07
-1.69286e+07
-1.66233e+07
-1.63267e+07
-1.60215e+07
-1.5779e+07
-1.54305e+07
-1.50605e+07
-1.47867e+07
-1.44801e+07
-1.41735e+07
-1.38724e+07
-1.35669e+07
-1.32632e+07
-1.29578e+07
-1.26533e+07
-1.23471e+07
-1.20435e+07
-1.17347e+07
-1.1439e+07
-1.1128e+07
-1.08668e+07
-1.05347e+07
-1.0182e+07
-9.90116e+06
-9.59425e+06
-9.29117e+06
-8.99112e+06
-8.68645e+06
-8.38346e+06
-8.07876e+06
-7.77506e+06
-7.46927e+06
-7.16344e+06
-6.85948e+06
-6.55554e+06
-6.25031e+06
-5.94469e+06
-5.63938e+06
-5.33393e+06
-5.02875e+06
-4.72351e+06
-4.41832e+06
-4.11308e+06
-3.80776e+06
-3.50268e+06
-3.19798e+06
-2.89336e+06
-2.58874e+06
-2.28484e+06
-1.98203e+06
-1.68307e+06
-1.38961e+06
-1.11407e+06
-850281
-639243
-182553
-4.56978e+07
-4.18272e+07
-4.10485e+07
-4.04243e+07
-4.02942e+07
-4.00206e+07
-3.98139e+07
-3.95592e+07
-3.9313e+07
-3.9055e+07
-3.87983e+07
-3.85391e+07
-3.82801e+07
-3.80207e+07
-3.77613e+07
-3.75019e+07
-3.72425e+07
-3.69831e+07
-3.67238e+07
-3.64644e+07
-3.62056e+07
-3.59458e+07
-3.56885e+07
-3.54271e+07
-3.51734e+07
-3.49079e+07
-3.46502e+07
-3.44491e+07
-3.40517e+07
-3.37359e+07
-3.35892e+07
-3.33132e+07
-3.30757e+07
-3.28085e+07
-3.25516e+07
-3.22893e+07
-3.20307e+07
-3.17722e+07
-3.15143e+07
-3.12567e+07
-3.09991e+07
-3.07408e+07
-3.04827e+07
-3.02216e+07
-2.99629e+07
-2.97042e+07
-2.94474e+07
-2.91902e+07
-2.89313e+07
-2.86729e+07
-2.84133e+07
-2.81541e+07
-2.78946e+07
-2.7635e+07
-2.73755e+07
-2.71153e+07
-2.68552e+07
-2.65942e+07
-2.6333e+07
-2.60734e+07
-2.58139e+07
-2.55559e+07
-2.52963e+07
-2.50369e+07
-2.4777e+07
-2.45172e+07
-2.42576e+07
-2.3998e+07
-2.37385e+07
-2.34791e+07
-2.32198e+07
-2.29605e+07
-2.27012e+07
-2.24419e+07
-2.21826e+07
-2.19233e+07
-2.1664e+07
-2.14047e+07
-2.11453e+07
-2.0886e+07
-2.06266e+07
-2.03672e+07
-2.01078e+07
-1.98484e+07
-1.9589e+07
-1.93296e+07
-1.90703e+07
-1.88107e+07
-1.85516e+07
-1.82911e+07
-1.8032e+07
-1.77707e+07
-1.75084e+07
-1.72577e+07
-1.69766e+07
-1.67127e+07
-1.64652e+07
-1.62053e+07
-1.59507e+07
-1.57015e+07
-1.54381e+07
-1.52291e+07
-1.4947e+07
-1.46247e+07
-1.43932e+07
-1.41285e+07
-1.38778e+07
-1.35706e+07
-1.33834e+07
-1.27769e+07
-1.28386e+07
-1.25235e+07
-1.23118e+07
-1.20469e+07
-1.17943e+07
-1.15342e+07
-1.12763e+07
-1.10166e+07
-1.07579e+07
-1.04974e+07
-1.02394e+07
-9.97444e+06
-9.72346e+06
-9.4251e+06
-9.21851e+06
-8.70729e+06
-8.67677e+06
-8.38993e+06
-8.15979e+06
-7.89805e+06
-7.64471e+06
-7.38502e+06
-7.12741e+06
-6.86833e+06
-6.60981e+06
-6.35043e+06
-6.09266e+06
-5.83245e+06
-5.57302e+06
-5.31385e+06
-5.05393e+06
-4.79456e+06
-4.53489e+06
-4.2755e+06
-4.01599e+06
-3.7566e+06
-3.4971e+06
-3.23762e+06
-2.97831e+06
-2.71911e+06
-2.46007e+06
-2.20101e+06
-1.94248e+06
-1.68443e+06
-1.42821e+06
-1.17279e+06
-920957
-657420
-356149
153713
-4.05678e+07
-3.68916e+07
-3.56241e+07
-3.48128e+07
-3.45749e+07
-3.42873e+07
-3.40924e+07
-3.38669e+07
-3.36547e+07
-3.34332e+07
-3.32135e+07
-3.29916e+07
-3.277e+07
-3.2548e+07
-3.2326e+07
-3.21039e+07
-3.18819e+07
-3.16598e+07
-3.14379e+07
-3.12158e+07
-3.09943e+07
-3.07719e+07
-3.05523e+07
-3.03276e+07
-3.01189e+07
-2.98806e+07
-2.97773e+07
-2.94076e+07
-3.00792e+07
-2.89552e+07
-2.88756e+07
-2.85286e+07
-2.83249e+07
-2.80881e+07
-2.78688e+07
-2.76444e+07
-2.7422e+07
-2.72002e+07
-2.69788e+07
-2.67578e+07
-2.65367e+07
-2.63156e+07
-2.60949e+07
-2.58723e+07
-2.56561e+07
-2.54318e+07
-2.52096e+07
-2.49893e+07
-2.47667e+07
-2.45458e+07
-2.43233e+07
-2.41016e+07
-2.38794e+07
-2.36572e+07
-2.34352e+07
-2.32123e+07
-2.29905e+07
-2.27672e+07
-2.2545e+07
-2.23238e+07
-2.20989e+07
-2.18777e+07
-2.1655e+07
-2.14328e+07
-2.12106e+07
-2.09882e+07
-2.0766e+07
-2.05437e+07
-2.03217e+07
-2.00996e+07
-1.98776e+07
-1.96556e+07
-1.94336e+07
-1.92116e+07
-1.89897e+07
-1.87677e+07
-1.85457e+07
-1.83237e+07
-1.81017e+07
-1.78797e+07
-1.76576e+07
-1.74355e+07
-1.72135e+07
-1.69914e+07
-1.67694e+07
-1.65473e+07
-1.63254e+07
-1.61031e+07
-1.58816e+07
-1.56584e+07
-1.54391e+07
-1.52131e+07
-1.50026e+07
-1.47669e+07
-1.44801e+07
-1.4309e+07
-1.41102e+07
-1.38747e+07
-1.36535e+07
-1.34373e+07
-1.31619e+07
-1.30037e+07
-1.23762e+07
-1.25566e+07
-1.22702e+07
-1.20989e+07
-1.18752e+07
-1.16535e+07
-1.1415e+07
-1.12462e+07
-1.10311e+07
-1.07603e+07
-1.05444e+07
-1.03161e+07
-1.00971e+07
-9.8741e+06
-9.65317e+06
-9.43083e+06
-9.20939e+06
-8.98651e+06
-8.76594e+06
-8.54101e+06
-8.32468e+06
-8.09514e+06
-7.87146e+06
-7.67276e+06
-7.42833e+06
-7.20626e+06
-6.99655e+06
-6.76365e+06
-6.5461e+06
-6.32213e+06
-6.10147e+06
-5.87934e+06
-5.65785e+06
-5.43531e+06
-5.21648e+06
-4.99406e+06
-4.77047e+06
-4.54901e+06
-4.32628e+06
-4.10439e+06
-3.8821e+06
-3.66013e+06
-3.43796e+06
-3.21597e+06
-2.99382e+06
-2.77182e+06
-2.54995e+06
-2.32786e+06
-2.10608e+06
-1.88423e+06
-1.66285e+06
-1.44162e+06
-1.22126e+06
-999173
-775172
-527174
-225580
265111
-3.38339e+07
-3.06512e+07
-2.93008e+07
-2.84831e+07
-2.81704e+07
-2.78892e+07
-2.77072e+07
-2.75147e+07
-2.73388e+07
-2.71575e+07
-2.69788e+07
-2.67985e+07
-2.66185e+07
-2.64381e+07
-2.62578e+07
-2.60774e+07
-2.58971e+07
-2.57167e+07
-2.55365e+07
-2.53561e+07
-2.51762e+07
-2.49953e+07
-2.48167e+07
-2.46334e+07
-2.44588e+07
-2.42617e+07
-2.40998e+07
-2.38e+07
-2.36439e+07
-2.3605e+07
-2.3374e+07
-2.31772e+07
-2.30039e+07
-2.2817e+07
-2.26394e+07
-2.24581e+07
-2.22763e+07
-2.20958e+07
-2.19151e+07
-2.17351e+07
-2.15549e+07
-2.13751e+07
-2.11964e+07
-2.10155e+07
-2.08462e+07
-2.06624e+07
-2.04784e+07
-2.02998e+07
-2.01173e+07
-1.99383e+07
-1.97573e+07
-1.95773e+07
-1.93968e+07
-1.92162e+07
-1.90362e+07
-1.8855e+07
-1.86758e+07
-1.84945e+07
-1.83157e+07
-1.81381e+07
-1.79515e+07
-1.77712e+07
-1.75899e+07
-1.74092e+07
-1.72289e+07
-1.70482e+07
-1.68679e+07
-1.66873e+07
-1.6507e+07
-1.63265e+07
-1.61462e+07
-1.59659e+07
-1.57856e+07
-1.56053e+07
-1.5425e+07
-1.52447e+07
-1.50643e+07
-1.4884e+07
-1.47037e+07
-1.45233e+07
-1.43429e+07
-1.41626e+07
-1.39822e+07
-1.38018e+07
-1.36215e+07
-1.3441e+07
-1.32608e+07
-1.30802e+07
-1.29005e+07
-1.27191e+07
-1.25414e+07
-1.23591e+07
-1.21865e+07
-1.20324e+07
-1.17799e+07
-1.1584e+07
-1.14601e+07
-1.12686e+07
-1.10933e+07
-1.09133e+07
-1.07278e+07
-1.05248e+07
-1.0409e+07
-1.02379e+07
-1.00063e+07
-9.83112e+06
-9.64939e+06
-9.46108e+06
-9.29709e+06
-9.17474e+06
-8.93932e+06
-8.73462e+06
-8.5643e+06
-8.37861e+06
-8.20163e+06
-8.02033e+06
-7.84102e+06
-7.66036e+06
-7.48059e+06
-7.29946e+06
-7.12052e+06
-6.93711e+06
-6.76266e+06
-6.57086e+06
-6.40981e+06
-6.23907e+06
-6.02703e+06
-5.86861e+06
-5.68253e+06
-5.49425e+06
-5.31741e+06
-5.13517e+06
-4.9557e+06
-4.77548e+06
-4.59453e+06
-4.4154e+06
-4.24236e+06
-4.05681e+06
-3.87363e+06
-3.69474e+06
-3.51364e+06
-3.33379e+06
-3.15327e+06
-2.97308e+06
-2.79259e+06
-2.61239e+06
-2.43196e+06
-2.25178e+06
-2.07163e+06
-1.89095e+06
-1.71078e+06
-1.53048e+06
-1.35042e+06
-1.17007e+06
-989370
-805000
-613649
-394348
-120679
303247
-2.69474e+07
-2.42756e+07
-2.3116e+07
-2.2368e+07
-2.20652e+07
-2.18156e+07
-2.16605e+07
-2.15044e+07
-2.13649e+07
-2.12224e+07
-2.10825e+07
-2.09415e+07
-2.08009e+07
-2.06599e+07
-2.05191e+07
-2.03781e+07
-2.02372e+07
-2.00963e+07
-1.99555e+07
-1.98145e+07
-1.9674e+07
-1.95325e+07
-1.93934e+07
-1.92495e+07
-1.91158e+07
-1.89605e+07
-1.88476e+07
-1.86444e+07
-1.83928e+07
-1.83899e+07
-1.828e+07
-1.81112e+07
-1.79802e+07
-1.78321e+07
-1.76946e+07
-1.7554e+07
-1.741e+07
-1.72685e+07
-1.71262e+07
-1.69851e+07
-1.68432e+07
-1.67031e+07
-1.65631e+07
-1.64235e+07
-1.63025e+07
-1.61513e+07
-1.6003e+07
-1.58644e+07
-1.57199e+07
-1.55809e+07
-1.5439e+07
-1.52986e+07
-1.51575e+07
-1.50164e+07
-1.48761e+07
-1.47341e+07
-1.45955e+07
-1.44536e+07
-1.43167e+07
-1.41793e+07
-1.40282e+07
-1.38874e+07
-1.37453e+07
-1.3604e+07
-1.34634e+07
-1.33221e+07
-1.31814e+07
-1.30402e+07
-1.28993e+07
-1.27583e+07
-1.26174e+07
-1.24765e+07
-1.23356e+07
-1.21947e+07
-1.20538e+07
-1.19129e+07
-1.1772e+07
-1.1631e+07
-1.14901e+07
-1.13492e+07
-1.12082e+07
-1.10673e+07
-1.09263e+07
-1.07853e+07
-1.06444e+07
-1.05034e+07
-1.03627e+07
-1.02215e+07
-1.00815e+07
-9.9394e+06
-9.80526e+06
-9.65731e+06
-9.57955e+06
-9.36562e+06
-9.66345e+06
-9.08465e+06
-9.01423e+06
-8.81043e+06
-8.67286e+06
-8.52907e+06
-8.3773e+06
-8.24942e+06
-8.17075e+06
-7.9801e+06
-7.81269e+06
-7.68311e+06
-7.53901e+06
-7.40034e+06
-7.25733e+06
-7.1429e+06
-6.99338e+06
-6.83391e+06
-6.69477e+06
-6.54883e+06
-6.40946e+06
-6.2675e+06
-6.12731e+06
-5.98608e+06
-5.84569e+06
-5.70423e+06
-5.56471e+06
-5.42217e+06
-5.28738e+06
-5.14215e+06
-5.03597e+06
-4.87364e+06
-4.97277e+06
-4.57248e+06
-4.47314e+06
-4.29412e+06
-4.1581e+06
-4.0129e+06
-3.87268e+06
-3.73125e+06
-3.58964e+06
-3.4468e+06
-3.31462e+06
-3.17365e+06
-3.02661e+06
-2.88746e+06
-2.74552e+06
-2.60515e+06
-2.46406e+06
-2.32334e+06
-2.18225e+06
-2.04157e+06
-1.9006e+06
-1.75997e+06
-1.61941e+06
-1.47777e+06
-1.33695e+06
-1.19597e+06
-1.05511e+06
-913828
-771730
-625597
-471818
-291001
-66692.4
275933
-1.94359e+07
-1.74671e+07
-1.65816e+07
-1.5997e+07
-1.57433e+07
-1.55475e+07
-1.54274e+07
-1.53121e+07
-1.52111e+07
-1.5109e+07
-1.50092e+07
-1.49087e+07
-1.48086e+07
-1.47082e+07
-1.46079e+07
-1.45076e+07
-1.44073e+07
-1.4307e+07
-1.42068e+07
-1.41063e+07
-1.40064e+07
-1.39055e+07
-1.38064e+07
-1.37031e+07
-1.36061e+07
-1.3493e+07
-1.33997e+07
-1.32541e+07
-1.31403e+07
-1.31068e+07
-1.29989e+07
-1.28949e+07
-1.28e+07
-1.2697e+07
-1.26008e+07
-1.25025e+07
-1.23971e+07
-1.2296e+07
-1.21934e+07
-1.20923e+07
-1.19902e+07
-1.189e+07
-1.17904e+07
-1.16889e+07
-1.16172e+07
-1.1508e+07
-1.13935e+07
-1.12966e+07
-1.11908e+07
-1.10927e+07
-1.09911e+07
-1.08914e+07
-1.07909e+07
-1.06903e+07
-1.05908e+07
-1.04891e+07
-1.03923e+07
-1.02904e+07
-1.0197e+07
-1.01057e+07
-9.98808e+06
-9.88642e+06
-9.78535e+06
-9.68416e+06
-9.58478e+06
-9.48408e+06
-9.38411e+06
-9.28359e+06
-9.18333e+06
-9.08292e+06
-8.9826e+06
-8.88225e+06
-8.78193e+06
-8.68161e+06
-8.5813e+06
-8.48098e+06
-8.38066e+06
-8.28033e+06
-8.18e+06
-8.07966e+06
-7.97933e+06
-7.87897e+06
-7.77864e+06
-7.67827e+06
-7.57797e+06
-7.47757e+06
-7.37741e+06
-7.27679e+06
-7.17721e+06
-7.07555e+06
-6.97851e+06
-6.87062e+06
-6.78268e+06
-6.62181e+06
-6.5347e+06
-6.51047e+06
-6.38343e+06
-6.27438e+06
-6.17381e+06
-6.07174e+06
-5.97081e+06
-5.86627e+06
-5.7966e+06
-5.68955e+06
-5.57032e+06
-5.4721e+06
-5.36924e+06
-5.26941e+06
-5.17282e+06
-5.09467e+06
-4.97609e+06
-4.86539e+06
-4.76624e+06
-4.66207e+06
-4.56302e+06
-4.46177e+06
-4.36206e+06
-4.26148e+06
-4.16162e+06
-4.06088e+06
-3.96174e+06
-3.86021e+06
-3.76398e+06
-3.66213e+06
-3.57062e+06
-3.49812e+06
-3.34434e+06
-3.23187e+06
-3.16419e+06
-3.05453e+06
-2.95899e+06
-2.85645e+06
-2.7561e+06
-2.6563e+06
-2.55076e+06
-2.45651e+06
-2.37701e+06
-2.25775e+06
-2.14944e+06
-2.05471e+06
-1.95355e+06
-1.85446e+06
-1.75404e+06
-1.65405e+06
-1.55357e+06
-1.45363e+06
-1.35325e+06
-1.25343e+06
-1.15351e+06
-1.05209e+06
-951853
-851350
-750958
-650180
-548224
-442854
-330169
-195704
-29715.4
219390
-1.17758e+07
-1.0565e+07
-1.00225e+07
-9.64874e+06
-9.48443e+06
-9.35965e+06
-9.28426e+06
-9.21339e+06
-9.15204e+06
-9.09034e+06
-9.03022e+06
-8.96974e+06
-8.9095e+06
-8.84913e+06
-8.7888e+06
-8.72844e+06
-8.66812e+06
-8.60775e+06
-8.54751e+06
-8.48708e+06
-8.42708e+06
-8.36621e+06
-8.30687e+06
-8.24401e+06
-8.18661e+06
-8.11644e+06
-8.06165e+06
-7.97543e+06
-7.87994e+06
-7.87263e+06
-7.82071e+06
-7.75657e+06
-7.70343e+06
-7.64145e+06
-7.58677e+06
-7.53149e+06
-7.46263e+06
-7.40079e+06
-7.33736e+06
-7.27559e+06
-7.21173e+06
-7.15259e+06
-7.08827e+06
-7.03413e+06
-7.02475e+06
-6.93283e+06
-6.85083e+06
-6.79822e+06
-6.73068e+06
-6.67411e+06
-6.61218e+06
-6.55275e+06
-6.49231e+06
-6.43157e+06
-6.37244e+06
-6.31036e+06
-6.25512e+06
-6.19225e+06
-6.14449e+06
-6.09168e+06
-6.0069e+06
-5.94739e+06
-5.88646e+06
-5.82549e+06
-5.76656e+06
-5.70583e+06
-5.646e+06
-5.58543e+06
-5.52517e+06
-5.46471e+06
-5.40436e+06
-5.34396e+06
-5.2836e+06
-5.22323e+06
-5.16288e+06
-5.10251e+06
-5.04215e+06
-4.98179e+06
-4.92143e+06
-4.86106e+06
-4.8007e+06
-4.74032e+06
-4.67995e+06
-4.61956e+06
-4.55923e+06
-4.4988e+06
-4.43861e+06
-4.37799e+06
-4.31847e+06
-4.25687e+06
-4.20053e+06
-4.13385e+06
-4.08955e+06
-3.99879e+06
-3.88281e+06
-3.89506e+06
-3.84932e+06
-3.77513e+06
-3.71637e+06
-3.65389e+06
-3.5927e+06
-3.53496e+06
-3.49888e+06
-3.42247e+06
-3.35156e+06
-3.29335e+06
-3.2306e+06
-3.17248e+06
-3.11195e+06
-3.06373e+06
-2.99714e+06
-2.92947e+06
-2.86878e+06
-2.80522e+06
-2.74544e+06
-2.68424e+06
-2.62432e+06
-2.56374e+06
-2.50379e+06
-2.44316e+06
-2.38388e+06
-2.32288e+06
-2.26614e+06
-2.20474e+06
-2.1532e+06
-2.09229e+06
-1.9899e+06
-1.95353e+06
-1.90955e+06
-1.83807e+06
-1.78144e+06
-1.71844e+06
-1.65835e+06
-1.59752e+06
-1.53462e+06
-1.4639e+06
-1.42138e+06
-1.37171e+06
-1.29356e+06
-1.23665e+06
-1.17531e+06
-1.1157e+06
-1.05525e+06
-995203
-934670
-874786
-814325
-754734
-695372
-633147
-572721
-512196
-451657
-391093
-329379
-265802
-197783
-114206
-12733.1
138676
-3.92692e+06
-3.52132e+06
-3.33596e+06
-3.20872e+06
-3.151e+06
-3.10822e+06
-3.08229e+06
-3.05839e+06
-3.03784e+06
-3.01728e+06
-2.9973e+06
-2.97721e+06
-2.95721e+06
-2.93717e+06
-2.91716e+06
-2.89713e+06
-2.87714e+06
-2.85711e+06
-2.83719e+06
-2.81711e+06
-2.79738e+06
-2.7769e+06
-2.75757e+06
-2.73534e+06
-2.71675e+06
-2.6888e+06
-2.67001e+06
-2.63226e+06
-2.60181e+06
-2.61141e+06
-2.59217e+06
-2.57328e+06
-2.55978e+06
-2.54002e+06
-2.52822e+06
-2.51478e+06
-2.48249e+06
-2.46114e+06
-2.43742e+06
-2.41539e+06
-2.39128e+06
-2.37088e+06
-2.34649e+06
-2.31845e+06
-2.36369e+06
-2.33172e+06
-2.27177e+06
-2.26172e+06
-2.2318e+06
-2.21601e+06
-2.19406e+06
-2.17501e+06
-2.15489e+06
-2.13427e+06
-2.11567e+06
-2.0927e+06
-2.07916e+06
-2.05293e+06
-2.0517e+06
-2.05839e+06
-1.99513e+06
-1.96973e+06
-1.9531e+06
-1.9312e+06
-1.91398e+06
-1.8934e+06
-1.87417e+06
-1.8539e+06
-1.834e+06
-1.81385e+06
-1.79382e+06
-1.77374e+06
-1.75369e+06
-1.73364e+06
-1.7136e+06
-1.69355e+06
-1.67352e+06
-1.65348e+06
-1.63345e+06
-1.61342e+06
-1.59339e+06
-1.57334e+06
-1.55331e+06
-1.53325e+06
-1.51325e+06
-1.49315e+06
-1.47326e+06
-1.45297e+06
-1.43354e+06
-1.41229e+06
-1.39441e+06
-1.36866e+06
-1.35383e+06
-1.3116e+06
-1.28533e+06
-1.30119e+06
-1.27639e+06
-1.25447e+06
-1.23441e+06
-1.21329e+06
-1.19437e+06
-1.17357e+06
-1.16736e+06
-1.14228e+06
-1.11522e+06
-1.09556e+06
-1.07374e+06
-1.0553e+06
-1.03606e+06
-1.02504e+06
-998241
-973878
-953269
-930881
-911245
-890531
-870857
-850642
-830959
-810735
-791546
-771144
-753464
-733660
-716256
-704198
-660554
-641283
-632634
-608137
-591228
-569795
-548637
-530474
-487735
-496745
-301406
-445244
-406402
-408237
-387980
-369979
-349982
-330407
-310186
-290774
-270549
-251890
-232591
-209943
-190114
-169960
-149763
-129941
-109135
-88843.7
-65614
-36439.7
-2771.71
47640.7
3.92823e+06
3.52251e+06
3.3371e+06
3.2098e+06
3.15206e+06
3.10926e+06
3.08332e+06
3.05943e+06
3.03887e+06
3.01832e+06
2.99833e+06
2.97824e+06
2.95823e+06
2.93818e+06
2.91814e+06
2.89808e+06
2.87799e+06
2.85793e+06
2.83777e+06
2.81775e+06
2.79742e+06
2.77773e+06
2.75708e+06
2.73874e+06
2.71758e+06
2.70328e+06
2.68284e+06
2.6734e+06
2.66547e+06
2.62431e+06
2.60034e+06
2.57951e+06
2.5516e+06
2.53092e+06
2.49938e+06
2.46403e+06
2.4649e+06
2.44834e+06
2.43213e+06
2.41493e+06
2.4022e+06
2.37876e+06
2.38505e+06
2.33742e+06
2.18566e+06
2.2669e+06
2.3019e+06
2.25203e+06
2.24297e+06
2.21522e+06
2.19711e+06
2.17566e+06
2.15566e+06
2.13623e+06
2.11444e+06
2.09766e+06
2.06884e+06
2.05686e+06
2.00255e+06
1.9729e+06
2.0079e+06
1.98096e+06
1.95718e+06
1.93795e+06
1.91465e+06
1.8952e+06
1.87424e+06
1.85449e+06
1.8343e+06
1.8144e+06
1.79436e+06
1.77438e+06
1.75436e+06
1.73435e+06
1.71432e+06
1.69429e+06
1.67426e+06
1.65421e+06
1.63417e+06
1.61412e+06
1.59407e+06
1.57404e+06
1.55398e+06
1.53395e+06
1.51388e+06
1.49389e+06
1.47371e+06
1.4539e+06
1.4333e+06
1.41426e+06
1.39229e+06
1.37647e+06
1.35244e+06
1.34453e+06
1.34189e+06
1.29362e+06
1.27031e+06
1.25203e+06
1.23114e+06
1.21192e+06
1.19077e+06
1.17017e+06
1.14013e+06
1.12577e+06
1.10974e+06
1.08948e+06
1.07081e+06
1.04914e+06
1.02912e+06
1.00359e+06
986729
969523
950107
931820
911575
892070
871753
851852
831521
811603
790876
771032
749184
729111
707234
685726
682537
655360
629152
612585
590144
571310
550437
529102
508496
471530
483321
470654
430289
412548
390673
370716
350563
330263
310521
289755
270240
248239
225365
210036
190398
170050
150303
129581
109755
86996.8
61213.4
37064.8
2976.49
-48391.6
1.17771e+07
1.05662e+07
1.00236e+07
9.64982e+06
9.48549e+06
9.36069e+06
9.2853e+06
9.21442e+06
9.15307e+06
9.09138e+06
9.03126e+06
8.97078e+06
8.91052e+06
8.85014e+06
8.78978e+06
8.72939e+06
8.66898e+06
8.60858e+06
8.54809e+06
8.48771e+06
8.42708e+06
8.36695e+06
8.30607e+06
8.24698e+06
8.1859e+06
8.12971e+06
8.06948e+06
8.01602e+06
7.96063e+06
7.88782e+06
7.82498e+06
7.76366e+06
7.69425e+06
7.63338e+06
7.55444e+06
7.48056e+06
7.44803e+06
7.3888e+06
7.33204e+06
7.27488e+06
7.22037e+06
7.16008e+06
7.11703e+06
7.10316e+06
6.9036e+06
6.82177e+06
6.8709e+06
6.78715e+06
6.73999e+06
6.67316e+06
6.61489e+06
6.55332e+06
6.49304e+06
6.43367e+06
6.37153e+06
6.31734e+06
6.24724e+06
6.21174e+06
6.10438e+06
5.95852e+06
6.00956e+06
5.97244e+06
5.88956e+06
5.83362e+06
5.76694e+06
5.70761e+06
5.64597e+06
5.586e+06
5.52545e+06
5.46526e+06
5.4049e+06
5.34461e+06
5.28427e+06
5.22394e+06
5.16359e+06
5.10325e+06
5.04289e+06
4.98252e+06
4.92214e+06
4.86177e+06
4.80139e+06
4.74102e+06
4.68063e+06
4.62027e+06
4.55987e+06
4.49954e+06
4.43907e+06
4.3789e+06
4.31813e+06
4.25862e+06
4.19711e+06
4.14008e+06
4.07809e+06
4.02585e+06
3.97039e+06
3.89406e+06
3.83437e+06
3.77332e+06
3.71267e+06
3.65261e+06
3.59099e+06
3.5307e+06
3.46417e+06
3.40629e+06
3.34838e+06
3.288e+06
3.22855e+06
3.16692e+06
3.10637e+06
3.0421e+06
2.98429e+06
2.92551e+06
2.86563e+06
2.80642e+06
2.74586e+06
2.68586e+06
2.62525e+06
2.56497e+06
2.50437e+06
2.4441e+06
2.38324e+06
2.32299e+06
2.26149e+06
2.20077e+06
2.14004e+06
2.07704e+06
2.0268e+06
1.96489e+06
1.90052e+06
1.84189e+06
1.77966e+06
1.71998e+06
1.65928e+06
1.5973e+06
1.53938e+06
1.45766e+06
1.40484e+06
1.37745e+06
1.29988e+06
1.23887e+06
1.17687e+06
1.11618e+06
1.05571e+06
995060
935008
873670
814042
750017
688999
634437
573110
512373
452115
390685
329950
262499
195640
116370
12999.2
-139434
1.94372e+07
1.74683e+07
1.65827e+07
1.5998e+07
1.57443e+07
1.55485e+07
1.54285e+07
1.53132e+07
1.52121e+07
1.511e+07
1.50102e+07
1.49097e+07
1.48096e+07
1.47092e+07
1.46089e+07
1.45086e+07
1.44082e+07
1.43078e+07
1.42073e+07
1.4107e+07
1.40064e+07
1.39061e+07
1.38053e+07
1.37057e+07
1.36047e+07
1.3507e+07
1.34067e+07
1.33104e+07
1.32141e+07
1.31059e+07
1.30027e+07
1.29034e+07
1.27928e+07
1.26951e+07
1.25693e+07
1.2426e+07
1.23781e+07
1.22881e+07
1.21875e+07
1.20925e+07
1.20031e+07
1.1894e+07
1.19097e+07
1.1679e+07
1.23718e+07
1.14773e+07
1.15099e+07
1.12937e+07
1.12056e+07
1.10923e+07
1.09938e+07
1.08919e+07
1.07916e+07
1.06921e+07
1.05898e+07
1.04946e+07
1.03826e+07
1.03014e+07
1.01078e+07
1.00276e+07
1.00442e+07
9.90359e+06
9.78845e+06
9.69e+06
9.58438e+06
9.48531e+06
9.38387e+06
9.28405e+06
9.18358e+06
9.08346e+06
8.98315e+06
8.88291e+06
8.78261e+06
8.68233e+06
8.58203e+06
8.48172e+06
8.38139e+06
8.28106e+06
8.18071e+06
8.08037e+06
7.98002e+06
7.87967e+06
7.77932e+06
7.67898e+06
7.57861e+06
7.47832e+06
7.37789e+06
7.27772e+06
7.17704e+06
7.07735e+06
6.97609e+06
6.87802e+06
6.77668e+06
6.68082e+06
6.58635e+06
6.47469e+06
6.37358e+06
6.27252e+06
6.17167e+06
6.07146e+06
5.97005e+06
5.86955e+06
5.76495e+06
5.66663e+06
5.56757e+06
5.46717e+06
5.3674e+06
5.26598e+06
5.16558e+06
5.06267e+06
4.96359e+06
4.86407e+06
4.76396e+06
4.66431e+06
4.56376e+06
4.46362e+06
4.36306e+06
4.26277e+06
4.16226e+06
4.06202e+06
3.96136e+06
3.86113e+06
3.76008e+06
3.65959e+06
3.5592e+06
3.45785e+06
3.3643e+06
3.26153e+06
3.15892e+06
3.05969e+06
2.95785e+06
2.85812e+06
2.75548e+06
2.65567e+06
2.53388e+06
2.45176e+06
2.19398e+06
2.26208e+06
2.13368e+06
2.0557e+06
1.95322e+06
1.85468e+06
1.7543e+06
1.65394e+06
1.55421e+06
1.45283e+06
1.35485e+06
1.24981e+06
1.14036e+06
1.05211e+06
953830
851350
751850
650003
550581
442206
341639
195570
31788.5
-220279
2.69487e+07
2.42768e+07
2.31171e+07
2.23691e+07
2.20663e+07
2.18167e+07
2.16615e+07
2.15054e+07
2.13659e+07
2.12234e+07
2.10836e+07
2.09426e+07
2.08019e+07
2.0661e+07
2.05201e+07
2.03791e+07
2.02381e+07
2.00971e+07
1.99561e+07
1.98151e+07
1.96739e+07
1.95329e+07
1.93914e+07
1.92508e+07
1.91091e+07
1.89696e+07
1.88283e+07
1.86896e+07
1.85502e+07
1.84051e+07
1.82616e+07
1.81228e+07
1.79692e+07
1.78325e+07
1.7646e+07
1.74877e+07
1.74075e+07
1.72623e+07
1.71202e+07
1.69839e+07
1.68463e+07
1.66957e+07
1.65778e+07
1.63318e+07
1.6214e+07
1.62084e+07
1.60218e+07
1.58645e+07
1.57265e+07
1.55801e+07
1.54407e+07
1.52988e+07
1.5158e+07
1.50184e+07
1.48758e+07
1.47453e+07
1.45936e+07
1.45503e+07
1.42965e+07
1.48346e+07
1.40156e+07
1.39847e+07
1.37448e+07
1.36139e+07
1.34621e+07
1.33232e+07
1.31809e+07
1.30406e+07
1.28995e+07
1.27589e+07
1.2618e+07
1.24772e+07
1.23363e+07
1.21954e+07
1.20545e+07
1.19136e+07
1.17727e+07
1.16318e+07
1.14908e+07
1.13499e+07
1.12089e+07
1.1068e+07
1.0927e+07
1.07861e+07
1.06451e+07
1.05042e+07
1.03632e+07
1.02224e+07
1.00812e+07
9.94072e+06
9.79912e+06
9.65968e+06
9.51811e+06
9.37975e+06
9.2411e+06
9.09352e+06
8.95275e+06
8.81087e+06
8.66966e+06
8.52869e+06
8.38689e+06
8.24594e+06
8.10233e+06
7.9623e+06
7.82192e+06
7.68079e+06
7.54009e+06
7.39827e+06
7.2572e+06
7.1144e+06
6.97415e+06
6.83339e+06
6.69239e+06
6.55168e+06
6.41043e+06
6.26952e+06
6.12834e+06
5.98742e+06
5.84637e+06
5.70554e+06
5.56446e+06
5.42367e+06
5.28239e+06
5.14133e+06
5.00063e+06
4.85863e+06
4.72171e+06
4.57979e+06
4.43745e+06
4.29711e+06
4.15512e+06
4.01472e+06
3.87288e+06
3.73329e+06
3.58902e+06
3.46629e+06
3.31263e+06
3.15425e+06
3.02478e+06
2.88633e+06
2.74547e+06
2.60506e+06
2.46422e+06
2.32316e+06
2.1827e+06
2.04055e+06
1.90152e+06
1.75058e+06
1.6131e+06
1.48406e+06
1.33833e+06
1.19599e+06
1.05562e+06
913763
772194
627560
470732
288235
66847.3
-276635
3.38351e+07
3.06523e+07
2.93018e+07
2.84842e+07
2.81714e+07
2.78902e+07
2.77082e+07
2.75157e+07
2.73398e+07
2.71586e+07
2.69798e+07
2.67995e+07
2.66195e+07
2.64391e+07
2.62588e+07
2.60784e+07
2.5898e+07
2.57176e+07
2.55372e+07
2.53567e+07
2.51761e+07
2.49956e+07
2.48146e+07
2.46341e+07
2.44527e+07
2.42727e+07
2.40914e+07
2.39118e+07
2.37322e+07
2.35505e+07
2.3368e+07
2.31945e+07
2.30013e+07
2.28439e+07
2.26057e+07
2.22928e+07
2.22515e+07
2.21102e+07
2.19064e+07
2.17372e+07
2.15567e+07
2.13694e+07
2.12175e+07
2.09891e+07
2.07115e+07
2.06553e+07
2.0502e+07
2.02971e+07
2.01232e+07
1.9937e+07
1.97584e+07
1.95773e+07
1.93971e+07
1.92175e+07
1.90358e+07
1.88595e+07
1.86762e+07
1.85079e+07
1.83677e+07
1.80762e+07
1.78717e+07
1.77791e+07
1.75794e+07
1.74106e+07
1.72257e+07
1.70481e+07
1.6867e+07
1.66875e+07
1.65071e+07
1.63271e+07
1.61468e+07
1.59666e+07
1.57863e+07
1.5606e+07
1.54257e+07
1.52454e+07
1.50651e+07
1.48847e+07
1.47044e+07
1.4524e+07
1.43436e+07
1.41633e+07
1.39829e+07
1.38025e+07
1.36221e+07
1.34418e+07
1.32614e+07
1.30812e+07
1.29006e+07
1.27205e+07
1.25396e+07
1.236e+07
1.2179e+07
1.19996e+07
1.18211e+07
1.16366e+07
1.14564e+07
1.12753e+07
1.10947e+07
1.09143e+07
1.07333e+07
1.05529e+07
1.03709e+07
1.0191e+07
1.00106e+07
9.82993e+06
9.64955e+06
9.46846e+06
9.28797e+06
9.1063e+06
8.926e+06
8.74532e+06
8.56455e+06
8.38401e+06
8.20322e+06
8.02273e+06
7.84213e+06
7.66176e+06
7.48135e+06
7.30114e+06
7.1208e+06
6.94066e+06
6.76026e+06
6.57994e+06
6.39988e+06
6.21888e+06
6.04083e+06
5.85945e+06
5.67831e+06
5.49829e+06
5.31714e+06
5.13726e+06
4.95565e+06
4.77651e+06
4.59091e+06
4.41807e+06
4.25661e+06
4.05534e+06
3.86947e+06
3.6941e+06
3.51286e+06
3.33357e+06
3.15331e+06
2.97292e+06
2.79363e+06
2.61228e+06
2.44165e+06
2.25009e+06
2.13588e+06
1.88956e+06
1.72028e+06
1.5301e+06
1.35134e+06
1.16979e+06
989814
804971
610228
393628
121137
-303583
4.05691e+07
3.68927e+07
3.56252e+07
3.48138e+07
3.45759e+07
3.42883e+07
3.40934e+07
3.3868e+07
3.36557e+07
3.34342e+07
3.32146e+07
3.29927e+07
3.27711e+07
3.2549e+07
3.2327e+07
3.21049e+07
3.18829e+07
3.16608e+07
3.14386e+07
3.12165e+07
3.09941e+07
3.07718e+07
3.05491e+07
3.03265e+07
3.01031e+07
2.98803e+07
2.96565e+07
2.9434e+07
2.92115e+07
2.899e+07
2.87664e+07
2.85512e+07
2.83142e+07
2.8107e+07
2.77654e+07
2.75702e+07
2.74689e+07
2.72048e+07
2.69695e+07
2.67569e+07
2.65313e+07
2.63035e+07
2.60893e+07
2.58382e+07
2.56126e+07
2.54423e+07
2.52093e+07
2.49862e+07
2.47668e+07
2.45436e+07
2.43233e+07
2.41012e+07
2.38794e+07
2.36582e+07
2.34346e+07
2.32168e+07
2.29886e+07
2.27846e+07
2.25412e+07
2.22198e+07
2.20755e+07
2.18906e+07
2.16448e+07
2.1433e+07
2.12062e+07
2.09874e+07
2.07648e+07
2.05438e+07
2.03218e+07
2.01002e+07
1.98782e+07
1.96563e+07
1.94344e+07
1.92124e+07
1.89904e+07
1.87685e+07
1.85465e+07
1.83244e+07
1.81024e+07
1.78804e+07
1.76583e+07
1.74362e+07
1.72142e+07
1.69921e+07
1.677e+07
1.6548e+07
1.6326e+07
1.6104e+07
1.58818e+07
1.56599e+07
1.54373e+07
1.52154e+07
1.49926e+07
1.47704e+07
1.45488e+07
1.4325e+07
1.41035e+07
1.38811e+07
1.3659e+07
1.34369e+07
1.32144e+07
1.29925e+07
1.27696e+07
1.25476e+07
1.2325e+07
1.21024e+07
1.18801e+07
1.16575e+07
1.14353e+07
1.12123e+07
1.09899e+07
1.0767e+07
1.05442e+07
1.03215e+07
1.00989e+07
9.87658e+06
9.65428e+06
9.43221e+06
9.21017e+06
8.98833e+06
8.76647e+06
8.54476e+06
8.32295e+06
8.10107e+06
7.87937e+06
7.65671e+06
7.43553e+06
7.21286e+06
6.99041e+06
6.76855e+06
6.54605e+06
6.32452e+06
6.10203e+06
5.88149e+06
5.65805e+06
5.44161e+06
5.21829e+06
4.9887e+06
4.76918e+06
4.54759e+06
4.32558e+06
4.1039e+06
3.88195e+06
3.65991e+06
3.43837e+06
3.2162e+06
2.99501e+06
2.77805e+06
2.54524e+06
2.31886e+06
2.10635e+06
1.88272e+06
1.66284e+06
1.4412e+06
1.22121e+06
999637
774540
526307
225646
-265343
4.5699e+07
4.18283e+07
4.10495e+07
4.04253e+07
4.02952e+07
4.00217e+07
3.98149e+07
3.95602e+07
3.93141e+07
3.9056e+07
3.87994e+07
3.85401e+07
3.82812e+07
3.80217e+07
3.77624e+07
3.75029e+07
3.72435e+07
3.69841e+07
3.67247e+07
3.64652e+07
3.62055e+07
3.59458e+07
3.56856e+07
3.54253e+07
3.51642e+07
3.4903e+07
3.46412e+07
3.438e+07
3.41195e+07
3.3863e+07
3.36032e+07
3.33599e+07
3.30882e+07
3.29398e+07
3.2551e+07
3.30201e+07
3.19679e+07
3.18771e+07
3.14996e+07
3.12636e+07
3.0991e+07
3.07283e+07
3.04724e+07
3.02079e+07
2.99286e+07
2.96991e+07
2.94411e+07
2.91836e+07
2.89289e+07
2.86698e+07
2.84125e+07
2.81534e+07
2.78944e+07
2.76354e+07
2.73746e+07
2.71156e+07
2.68533e+07
2.65895e+07
2.63434e+07
2.60507e+07
2.57838e+07
2.55436e+07
2.52798e+07
2.50312e+07
2.4771e+07
2.45154e+07
2.42561e+07
2.3998e+07
2.37387e+07
2.34797e+07
2.32205e+07
2.29613e+07
2.2702e+07
2.24427e+07
2.21834e+07
2.19241e+07
2.16648e+07
2.14054e+07
2.11461e+07
2.08867e+07
2.06273e+07
2.03679e+07
2.01085e+07
1.98491e+07
1.95897e+07
1.93303e+07
1.9071e+07
1.88117e+07
1.85522e+07
1.82928e+07
1.80329e+07
1.7773e+07
1.75126e+07
1.7252e+07
1.69925e+07
1.67331e+07
1.64746e+07
1.62152e+07
1.59558e+07
1.56963e+07
1.54368e+07
1.51777e+07
1.49182e+07
1.46584e+07
1.43981e+07
1.41379e+07
1.38781e+07
1.36182e+07
1.33588e+07
1.30988e+07
1.28386e+07
1.25779e+07
1.23173e+07
1.2057e+07
1.17968e+07
1.1537e+07
1.12774e+07
1.1018e+07
1.07587e+07
1.04995e+07
1.02405e+07
9.98157e+06
9.72268e+06
9.46364e+06
9.20465e+06
8.94473e+06
8.68502e+06
8.42502e+06
8.16557e+06
7.90626e+06
7.64665e+06
7.38775e+06
7.12807e+06
6.87006e+06
6.60995e+06
6.35228e+06
6.09717e+06
5.83215e+06
5.57202e+06
5.31276e+06
5.05293e+06
4.79388e+06
4.53461e+06
4.27531e+06
4.01654e+06
3.75668e+06
3.49849e+06
3.23727e+06
2.96769e+06
2.71639e+06
2.46066e+06
2.19949e+06
1.94233e+06
1.68384e+06
1.42808e+06
1.17274e+06
920214
657278
356245
-153812
5.25754e+07
4.66107e+07
4.75084e+07
4.71257e+07
4.7254e+07
4.70189e+07
4.68125e+07
4.65258e+07
4.62396e+07
4.59372e+07
4.56352e+07
4.53302e+07
4.50255e+07
4.47203e+07
4.44153e+07
4.41101e+07
4.3805e+07
4.34999e+07
4.31948e+07
4.28896e+07
4.25842e+07
4.22787e+07
4.19727e+07
4.16663e+07
4.1359e+07