/*--------------------------------*- C++ -*----------------------------------*\
| =========                 |                                                 |
| \\      /  F ield         | OpenFOAM: The Open Source CFD Toolbox           |
|  \\    /   O peration     | Version:  v1912                                 |
|   \\  /    A nd           | Website:  www.openfoam.com                      |
|    \\/     M anipulation  |                                                 |
\*---------------------------------------------------------------------------*/
FoamFile
{
    version     2.0;
    format      ascii;
    class       volScalarField;
    location    "1";
    object      sigmaEq;
}
// * * * * * * * * * * * * * * * * * * * * * * * * * * * * * * * * * * * * * //

dimensions      [1 -1 -2 0 0 0 0];


internalField   nonuniform List<scalar> 
2560
(
9.88938e+07
9.43635e+07
9.59674e+07
9.52886e+07
9.54415e+07
9.49467e+07
9.4511e+07
9.39276e+07
9.33467e+07
9.27357e+07
9.21256e+07
9.15098e+07
9.08947e+07
9.02785e+07
8.96626e+07
8.90466e+07
8.84306e+07
8.78146e+07
8.71989e+07
8.65829e+07
8.59681e+07
8.53518e+07
8.47402e+07
8.41213e+07
8.3516e+07
8.28868e+07
8.22463e+07
8.16594e+07
8.08837e+07
8.02335e+07
7.97242e+07
7.91066e+07
7.85333e+07
7.79011e+07
7.72877e+07
7.66636e+07
7.60515e+07
7.54386e+07
7.48279e+07
7.42174e+07
7.36071e+07
7.29941e+07
7.23805e+07
7.17594e+07
7.1133e+07
7.0524e+07
6.99202e+07
6.93092e+07
6.86972e+07
6.80826e+07
6.74668e+07
6.6851e+07
6.62348e+07
6.56186e+07
6.5002e+07
6.43846e+07
6.37652e+07
6.31453e+07
6.25216e+07
6.1902e+07
6.1293e+07
6.06813e+07
6.00659e+07
5.94499e+07
5.88325e+07
5.82155e+07
5.75988e+07
5.69824e+07
5.63664e+07
5.57505e+07
5.51348e+07
5.45191e+07
5.39035e+07
5.32879e+07
5.26723e+07
5.20566e+07
5.14409e+07
5.08251e+07
5.02093e+07
4.95934e+07
4.89776e+07
4.83616e+07
4.77457e+07
4.71297e+07
4.65139e+07
4.5898e+07
4.52823e+07
4.4666e+07
4.40502e+07
4.34323e+07
4.2814e+07
4.21935e+07
4.15605e+07
4.09565e+07
4.03451e+07
3.97081e+07
3.90841e+07
3.84803e+07
3.78728e+07
3.72811e+07
3.66719e+07
3.61052e+07
3.54789e+07
3.47889e+07
3.41902e+07
3.3555e+07
3.29589e+07
3.23116e+07
3.18376e+07
3.12813e+07
3.04359e+07
2.98221e+07
2.9231e+07
2.86125e+07
2.80064e+07
2.739e+07
2.67769e+07
2.61606e+07
2.55458e+07
2.49277e+07
2.43145e+07
2.36899e+07
2.30911e+07
2.24437e+07
2.19232e+07
2.13517e+07
2.05888e+07
1.99715e+07
1.93671e+07
1.87586e+07
1.81528e+07
1.75385e+07
1.69267e+07
1.63118e+07
1.56988e+07
1.50825e+07
1.44647e+07
1.38507e+07
1.32376e+07
1.26212e+07
1.20046e+07
1.13884e+07
1.0772e+07
1.01562e+07
9.54031e+06
8.92443e+06
8.30864e+06
7.69276e+06
7.07728e+06
6.46277e+06
5.84848e+06
5.23432e+06
4.62162e+06
4.01112e+06
3.40781e+06
2.81379e+06
2.25103e+06
1.70673e+06
1.28603e+06
975358
7.97076e+07
8.38676e+07
8.44154e+07
8.3827e+07
8.35369e+07
8.29617e+07
8.24914e+07
8.19483e+07
8.14264e+07
8.0888e+07
8.03538e+07
7.98162e+07
7.92796e+07
7.87422e+07
7.82051e+07
7.76679e+07
7.71307e+07
7.65935e+07
7.60566e+07
7.55193e+07
7.49831e+07
7.44455e+07
7.39123e+07
7.33734e+07
7.28511e+07
7.23126e+07
7.18163e+07
7.13088e+07
7.03335e+07
6.98561e+07
6.96113e+07
6.90089e+07
6.85103e+07
6.79529e+07
6.74163e+07
6.6871e+07
6.63372e+07
6.58021e+07
6.52688e+07
6.47357e+07
6.42032e+07
6.3669e+07
6.31354e+07
6.25956e+07
6.20482e+07
6.1518e+07
6.09915e+07
6.04568e+07
5.99223e+07
5.93855e+07
5.88483e+07
5.83111e+07
5.77739e+07
5.72366e+07
5.66992e+07
5.61615e+07
5.56219e+07
5.50825e+07
5.45386e+07
5.3997e+07
5.34666e+07
5.29323e+07
5.23946e+07
5.18571e+07
5.13184e+07
5.07804e+07
5.02426e+07
4.97052e+07
4.9168e+07
4.8631e+07
4.80941e+07
4.75572e+07
4.70203e+07
4.64835e+07
4.59466e+07
4.54097e+07
4.48728e+07
4.43359e+07
4.37989e+07
4.32619e+07
4.27248e+07
4.21878e+07
4.16507e+07
4.11137e+07
4.05767e+07
4.00396e+07
3.95028e+07
3.89656e+07
3.84291e+07
3.78912e+07
3.73544e+07
3.68155e+07
3.62684e+07
3.57266e+07
3.51629e+07
3.46289e+07
3.41041e+07
3.35724e+07
3.3041e+07
3.25228e+07
3.19624e+07
3.15527e+07
3.10477e+07
3.03208e+07
2.97945e+07
2.92637e+07
2.87407e+07
2.81108e+07
2.77209e+07
2.62541e+07
2.66331e+07
2.59569e+07
2.55128e+07
2.49653e+07
2.44413e+07
2.39035e+07
2.33692e+07
2.28321e+07
2.22962e+07
2.17575e+07
2.12229e+07
2.06748e+07
2.01493e+07
1.95367e+07
1.91021e+07
1.79112e+07
1.80086e+07
1.73899e+07
1.69212e+07
1.63824e+07
1.5857e+07
1.53202e+07
1.47871e+07
1.42513e+07
1.37181e+07
1.31819e+07
1.26444e+07
1.2111e+07
1.1577e+07
1.10406e+07
1.05041e+07
9.96863e+06
9.43315e+06
8.89849e+06
8.36405e+06
7.82992e+06
7.29638e+06
6.76316e+06
6.23077e+06
5.7002e+06
5.17085e+06
4.64276e+06
4.11695e+06
3.59348e+06
3.07462e+06
2.55741e+06
2.05067e+06
1.54792e+06
1.194e+06
1.37435e+06
6.28571e+07
7.02774e+07
7.16129e+07
7.12319e+07
7.07363e+07
7.01122e+07
6.96225e+07
6.9121e+07
6.86601e+07
6.81973e+07
6.77435e+07
6.7289e+07
6.68362e+07
6.63832e+07
6.59305e+07
6.54777e+07
6.5025e+07
6.45722e+07
6.41197e+07
6.36668e+07
6.32148e+07
6.27614e+07
6.23128e+07
6.1857e+07
6.14334e+07
6.09573e+07
6.07434e+07
5.99414e+07
6.18475e+07
5.90143e+07
5.89205e+07
5.82225e+07
5.77886e+07
5.72994e+07
5.68426e+07
5.63794e+07
5.59301e+07
5.5479e+07
5.50289e+07
5.45792e+07
5.41307e+07
5.36812e+07
5.32346e+07
5.27799e+07
5.23135e+07
5.18703e+07
5.14294e+07
5.09764e+07
5.05244e+07
5.0071e+07
4.96176e+07
4.91648e+07
4.87121e+07
4.82597e+07
4.78073e+07
4.73552e+07
4.69013e+07
4.64482e+07
4.59879e+07
4.55295e+07
4.50854e+07
4.4635e+07
4.41801e+07
4.37265e+07
4.3272e+07
4.28186e+07
4.23655e+07
4.19127e+07
4.14602e+07
4.10077e+07
4.05553e+07
4.0103e+07
3.96506e+07
3.91983e+07
3.87459e+07
3.82936e+07
3.78412e+07
3.73888e+07
3.69364e+07
3.64839e+07
3.60315e+07
3.5579e+07
3.51266e+07
3.46742e+07
3.42218e+07
3.37694e+07
3.33173e+07
3.28649e+07
3.24138e+07
3.19612e+07
3.1513e+07
3.10591e+07
3.05999e+07
3.01483e+07
2.96437e+07
2.91785e+07
2.87699e+07
2.83207e+07
2.7868e+07
2.74226e+07
2.68622e+07
2.65718e+07
2.50812e+07
2.56557e+07
2.50488e+07
2.4699e+07
2.4239e+07
2.37776e+07
2.33187e+07
2.30308e+07
2.25459e+07
2.19821e+07
2.15499e+07
2.10831e+07
2.06359e+07
2.0182e+07
1.97316e+07
1.92794e+07
1.88286e+07
1.83758e+07
1.79263e+07
1.74688e+07
1.70218e+07
1.65477e+07
1.6093e+07
1.57284e+07
1.52502e+07
1.47573e+07
1.43214e+07
1.38639e+07
1.34187e+07
1.29647e+07
1.2516e+07
1.20655e+07
1.16186e+07
1.11702e+07
1.07206e+07
1.02727e+07
9.82485e+06
9.37568e+06
8.9263e+06
8.47901e+06
8.03193e+06
7.58619e+06
7.14131e+06
6.6973e+06
6.2547e+06
5.81309e+06
5.3733e+06
4.93708e+06
4.50379e+06
4.0737e+06
3.64807e+06
3.22686e+06
2.81181e+06
2.40049e+06
2.0059e+06
1.65187e+06
1.50492e+06
1.70311e+06
4.89398e+07
5.68458e+07
5.89102e+07
5.87728e+07
5.827e+07
5.76691e+07
5.71928e+07
5.67425e+07
5.63436e+07
5.59545e+07
5.55781e+07
5.52037e+07
5.48318e+07
5.44602e+07
5.40889e+07
5.37177e+07
5.33465e+07
5.29753e+07
5.26041e+07
5.22326e+07
5.18618e+07
5.14893e+07
5.11201e+07
5.07433e+07
5.03836e+07
4.9975e+07
4.9658e+07
4.89991e+07
4.85759e+07
4.8613e+07
4.82068e+07
4.77914e+07
4.74117e+07
4.70197e+07
4.66401e+07
4.62578e+07
4.5891e+07
4.55217e+07
4.51519e+07
4.47832e+07
4.44159e+07
4.40484e+07
4.36867e+07
4.33144e+07
4.29248e+07
4.25647e+07
4.22083e+07
4.18342e+07
4.14617e+07
4.10887e+07
4.07161e+07
4.03448e+07
3.99738e+07
3.96034e+07
3.92334e+07
3.8864e+07
3.84932e+07
3.81238e+07
3.77431e+07
3.73631e+07
3.70043e+07
3.66362e+07
3.62606e+07
3.5888e+07
3.55147e+07
3.51429e+07
3.47716e+07
3.44007e+07
3.403e+07
3.36593e+07
3.32887e+07
3.2918e+07
3.25474e+07
3.21767e+07
3.18061e+07
3.14354e+07
3.10648e+07
3.06941e+07
3.03235e+07
2.99528e+07
2.95821e+07
2.92114e+07
2.88408e+07
2.84702e+07
2.80997e+07
2.77291e+07
2.7359e+07
2.69885e+07
2.66199e+07
2.62499e+07
2.58873e+07
2.55198e+07
2.51674e+07
2.48216e+07
2.42396e+07
2.38833e+07
2.36616e+07
2.32655e+07
2.29061e+07
2.25287e+07
2.21385e+07
2.17678e+07
2.15583e+07
2.11508e+07
2.06683e+07
2.03182e+07
1.99372e+07
1.95758e+07
1.92009e+07
1.88773e+07
1.85085e+07
1.81075e+07
1.77312e+07
1.73498e+07
1.69813e+07
1.66094e+07
1.62408e+07
1.58711e+07
1.55029e+07
1.51333e+07
1.4767e+07
1.43952e+07
1.40338e+07
1.36602e+07
1.33041e+07
1.29047e+07
1.2513e+07
1.22162e+07
1.18475e+07
1.14592e+07
1.10941e+07
1.07213e+07
1.03553e+07
9.98825e+06
9.62639e+06
9.26102e+06
8.89764e+06
8.53913e+06
8.17436e+06
7.81068e+06
7.44681e+06
7.08684e+06
6.72742e+06
6.37016e+06
6.01457e+06
5.66069e+06
5.30933e+06
4.96001e+06
4.61383e+06
4.27353e+06
3.93836e+06
3.60875e+06
3.2867e+06
2.97267e+06
2.66944e+06
2.37774e+06
2.11708e+06
1.91323e+06
1.87596e+06
1.91018e+06
3.65786e+07
4.35519e+07
4.5843e+07
4.58815e+07
4.54552e+07
4.4928e+07
4.45045e+07
4.41242e+07
4.37975e+07
4.34873e+07
4.31914e+07
4.28993e+07
4.261e+07
4.23213e+07
4.20332e+07
4.1745e+07
4.1457e+07
4.11688e+07
4.08808e+07
4.05922e+07
4.03041e+07
4.00143e+07
3.97269e+07
3.94323e+07
3.91487e+07
3.88316e+07
3.85401e+07
3.81682e+07
3.79029e+07
3.77075e+07
3.74205e+07
3.71448e+07
3.68553e+07
3.65541e+07
3.62553e+07
3.59541e+07
3.56722e+07
3.53867e+07
3.50986e+07
3.48125e+07
3.45278e+07
3.42437e+07
3.39703e+07
3.36796e+07
3.33668e+07
3.30969e+07
3.28262e+07
3.25315e+07
3.2239e+07
3.19483e+07
3.1658e+07
3.13699e+07
3.10822e+07
3.07953e+07
3.05094e+07
3.02244e+07
2.99385e+07
2.96549e+07
2.93551e+07
2.90561e+07
2.87839e+07
2.84993e+07
2.82042e+07
2.79141e+07
2.76236e+07
2.73352e+07
2.70476e+07
2.67601e+07
2.6473e+07
2.61857e+07
2.58985e+07
2.56112e+07
2.5324e+07
2.50367e+07
2.47494e+07
2.44622e+07
2.4175e+07
2.38877e+07
2.36005e+07
2.33133e+07
2.30261e+07
2.2739e+07
2.24519e+07
2.21648e+07
2.18778e+07
2.15908e+07
2.13043e+07
2.10174e+07
2.07329e+07
2.04457e+07
2.01742e+07
1.98767e+07
1.97032e+07
1.92451e+07
2.01668e+07
1.86684e+07
1.85531e+07
1.81538e+07
1.78729e+07
1.75732e+07
1.72921e+07
1.70072e+07
1.67699e+07
1.6471e+07
1.61546e+07
1.58627e+07
1.55672e+07
1.52881e+07
1.50007e+07
1.47367e+07
1.44502e+07
1.41553e+07
1.38632e+07
1.35693e+07
1.32826e+07
1.29952e+07
1.27104e+07
1.24254e+07
1.21419e+07
1.18577e+07
1.15768e+07
1.12926e+07
1.10202e+07
1.07345e+07
1.05182e+07
1.01556e+07
1.04663e+07
9.58861e+06
9.39487e+06
9.04134e+06
8.76474e+06
8.47371e+06
8.19327e+06
7.9119e+06
7.63604e+06
7.36061e+06
7.09472e+06
6.82015e+06
6.53863e+06
6.26683e+06
5.99156e+06
5.72291e+06
5.45505e+06
5.19025e+06
4.92809e+06
4.66856e+06
4.41289e+06
4.16023e+06
3.91176e+06
3.6714e+06
3.43823e+06
3.21223e+06
2.99615e+06
2.79092e+06
2.6004e+06
2.42685e+06
2.28833e+06
2.19194e+06
2.1835e+06
2.02704e+06
2.5644e+07
3.07896e+07
3.28465e+07
3.29732e+07
3.26624e+07
3.22517e+07
3.19156e+07
3.16241e+07
3.1379e+07
3.11519e+07
3.09379e+07
3.07281e+07
3.05212e+07
3.03149e+07
3.01091e+07
2.99034e+07
2.96978e+07
2.94921e+07
2.92863e+07
2.90801e+07
2.8874e+07
2.86662e+07
2.84598e+07
2.8247e+07
2.80403e+07
2.78117e+07
2.76016e+07
2.73736e+07
2.71701e+07
2.70023e+07
2.68107e+07
2.66268e+07
2.64183e+07
2.62075e+07
2.59882e+07
2.57673e+07
2.55699e+07
2.53679e+07
2.51603e+07
2.49557e+07
2.47522e+07
2.45503e+07
2.43641e+07
2.41606e+07
2.39302e+07
2.374e+07
2.35524e+07
2.33384e+07
2.31242e+07
2.29161e+07
2.27073e+07
2.25021e+07
2.22971e+07
2.2093e+07
2.18905e+07
2.16891e+07
2.14882e+07
2.12914e+07
2.10726e+07
2.08494e+07
2.06639e+07
2.04647e+07
2.02481e+07
2.004e+07
1.9832e+07
1.96264e+07
1.94219e+07
1.92174e+07
1.90133e+07
1.88089e+07
1.86046e+07
1.84002e+07
1.81958e+07
1.79914e+07
1.7787e+07
1.75827e+07
1.73784e+07
1.71741e+07
1.69699e+07
1.67657e+07
1.65615e+07
1.63574e+07
1.61533e+07
1.59493e+07
1.57455e+07
1.55415e+07
1.53381e+07
1.51341e+07
1.4932e+07
1.47263e+07
1.45291e+07
1.43043e+07
1.41255e+07
1.37645e+07
1.35587e+07
1.35762e+07
1.3333e+07
1.31166e+07
1.29064e+07
1.26974e+07
1.25005e+07
1.23007e+07
1.21163e+07
1.19066e+07
1.1697e+07
1.14885e+07
1.12803e+07
1.10858e+07
1.08742e+07
1.0671e+07
1.04863e+07
1.02882e+07
1.00768e+07
9.86997e+06
9.66633e+06
9.46373e+06
9.26325e+06
9.06315e+06
8.8646e+06
8.66594e+06
8.47001e+06
8.27244e+06
8.08093e+06
7.88564e+06
7.69644e+06
7.48272e+06
7.2341e+06
7.07664e+06
6.91721e+06
6.70761e+06
6.5158e+06
6.31737e+06
6.12368e+06
5.93095e+06
5.74113e+06
5.54729e+06
5.37299e+06
5.20969e+06
5.00414e+06
4.82423e+06
4.6399e+06
4.46412e+06
4.2895e+06
4.11838e+06
3.95069e+06
3.78625e+06
3.62666e+06
3.47042e+06
3.31825e+06
3.17462e+06
3.03907e+06
2.91008e+06
2.79057e+06
2.68171e+06
2.58773e+06
2.51027e+06
2.46168e+06
2.42685e+06
2.41257e+06
2.0945e+06
1.56475e+07
1.83152e+07
1.98271e+07
1.99727e+07
1.9774e+07
1.95e+07
1.92729e+07
1.90845e+07
1.89296e+07
1.87903e+07
1.86607e+07
1.85349e+07
1.84113e+07
1.82883e+07
1.81657e+07
1.80431e+07
1.79207e+07
1.7798e+07
1.76754e+07
1.75523e+07
1.74291e+07
1.73044e+07
1.71803e+07
1.70512e+07
1.69252e+07
1.67873e+07
1.66542e+07
1.65407e+07
1.64542e+07
1.63157e+07
1.61932e+07
1.60996e+07
1.59782e+07
1.58573e+07
1.57193e+07
1.55762e+07
1.54643e+07
1.53477e+07
1.52204e+07
1.5098e+07
1.49754e+07
1.48553e+07
1.47594e+07
1.46338e+07
1.44883e+07
1.44003e+07
1.42873e+07
1.4153e+07
1.40159e+07
1.38919e+07
1.37657e+07
1.36445e+07
1.35229e+07
1.34025e+07
1.32839e+07
1.31664e+07
1.30514e+07
1.29424e+07
1.28088e+07
1.26712e+07
1.2565e+07
1.24486e+07
1.23128e+07
1.21872e+07
1.20636e+07
1.19418e+07
1.18216e+07
1.17012e+07
1.15811e+07
1.14608e+07
1.13404e+07
1.122e+07
1.10997e+07
1.09793e+07
1.0859e+07
1.07388e+07
1.06187e+07
1.04986e+07
1.03786e+07
1.02586e+07
1.01388e+07
1.0019e+07
9.89934e+06
9.77974e+06
9.66031e+06
9.54085e+06
9.42183e+06
9.30224e+06
9.18414e+06
9.06235e+06
8.94635e+06
8.81051e+06
8.69237e+06
8.52681e+06
8.45454e+06
8.36272e+06
8.23841e+06
8.12997e+06
8.01063e+06
7.89109e+06
7.78277e+06
7.65849e+06
7.53809e+06
7.4322e+06
7.32103e+06
7.19387e+06
7.07441e+06
6.96081e+06
6.8378e+06
6.7211e+06
6.61827e+06
6.50838e+06
6.38626e+06
6.2686e+06
6.15153e+06
6.03648e+06
5.923e+06
5.81043e+06
5.69942e+06
5.58864e+06
5.48033e+06
5.37062e+06
5.26483e+06
5.15405e+06
5.03713e+06
4.92535e+06
4.79344e+06
4.72239e+06
4.61874e+06
4.51998e+06
4.41649e+06
4.31159e+06
4.20846e+06
4.10401e+06
4.00234e+06
3.86684e+06
3.87506e+06
3.79896e+06
3.63629e+06
3.55357e+06
3.45903e+06
3.37548e+06
3.29335e+06
3.21405e+06
3.13803e+06
3.06447e+06
2.99541e+06
2.92799e+06
2.86227e+06
2.80299e+06
2.7502e+06
2.7003e+06
2.65661e+06
2.62049e+06
2.59656e+06
2.58483e+06
2.59376e+06
2.5915e+06
2.56172e+06
2.1281e+06
7.14524e+06
6.08741e+06
7.17763e+06
7.35206e+06
7.22857e+06
7.07015e+06
6.93696e+06
6.84871e+06
6.78209e+06
6.73147e+06
6.68719e+06
6.64675e+06
6.60764e+06
6.56929e+06
6.53118e+06
6.49318e+06
6.45523e+06
6.41719e+06
6.37913e+06
6.34062e+06
6.30213e+06
6.26217e+06
6.22285e+06
6.17943e+06
6.13977e+06
6.09281e+06
6.05735e+06
6.04161e+06
6.0145e+06
5.95007e+06
5.92726e+06
5.91449e+06
5.87981e+06
5.85231e+06
5.80037e+06
5.73467e+06
5.70125e+06
5.67273e+06
5.62766e+06
5.5867e+06
5.54573e+06
5.50049e+06
5.48903e+06
5.46311e+06
5.43754e+06
5.42361e+06
5.36873e+06
5.33788e+06
5.27396e+06
5.23827e+06
5.19589e+06
5.16047e+06
5.12409e+06
5.08885e+06
5.05487e+06
5.0229e+06
4.99298e+06
4.98249e+06
4.93961e+06
4.88541e+06
4.85436e+06
4.83424e+06
4.78133e+06
4.73802e+06
4.70168e+06
4.66512e+06
4.63163e+06
4.59745e+06
4.56395e+06
4.53015e+06
4.4965e+06
4.4628e+06
4.42921e+06
4.39572e+06
4.36236e+06
4.32916e+06
4.2961e+06
4.26317e+06
4.23038e+06
4.19773e+06
4.16521e+06
4.13284e+06
4.10058e+06
4.06843e+06
4.03647e+06
4.0045e+06
3.97292e+06
3.94073e+06
3.90951e+06
3.87461e+06
3.84399e+06
3.79745e+06
3.77429e+06
3.73342e+06
3.72081e+06
3.69373e+06
3.67109e+06
3.65581e+06
3.61965e+06
3.59264e+06
3.56572e+06
3.5283e+06
3.5014e+06
3.48348e+06
3.45903e+06
3.42137e+06
3.39401e+06
3.36637e+06
3.33201e+06
3.30772e+06
3.29622e+06
3.27251e+06
3.23911e+06
3.21158e+06
3.18302e+06
3.15739e+06
3.13241e+06
3.10851e+06
3.0856e+06
3.06268e+06
3.04142e+06
3.01818e+06
2.99756e+06
2.97115e+06
2.94542e+06
2.92904e+06
2.91003e+06
2.90322e+06
2.87806e+06
2.86789e+06
2.84425e+06
2.82757e+06
2.80865e+06
2.79785e+06
2.77236e+06
2.77382e+06
2.50849e+06
2.73964e+06
2.71171e+06
2.69617e+06
2.68718e+06
2.67527e+06
2.6651e+06
2.65425e+06
2.64482e+06
2.63506e+06
2.62797e+06
2.62005e+06
2.61057e+06
2.60188e+06
2.59841e+06
2.59411e+06
2.59194e+06
2.59452e+06
2.60664e+06
2.628e+06
2.66462e+06
2.67531e+06
2.63503e+06
2.14238e+06
7.14622e+06
6.08918e+06
7.17944e+06
7.35394e+06
7.2305e+06
7.07211e+06
6.93893e+06
6.85067e+06
6.78405e+06
6.73342e+06
6.68912e+06
6.64866e+06
6.60953e+06
6.57116e+06
6.53304e+06
6.4951e+06
6.45725e+06
6.41957e+06
6.38206e+06
6.34496e+06
6.30824e+06
6.27244e+06
6.23751e+06
6.20397e+06
6.17308e+06
6.13972e+06
6.11466e+06
6.0609e+06
5.9927e+06
5.96821e+06
5.93837e+06
5.88642e+06
5.84196e+06
5.80502e+06
5.78926e+06
5.76865e+06
5.70057e+06
5.66115e+06
5.637e+06
5.59751e+06
5.5715e+06
5.51935e+06
5.46737e+06
5.41963e+06
5.27248e+06
5.3241e+06
5.31689e+06
5.30621e+06
5.28104e+06
5.23888e+06
5.20313e+06
5.16449e+06
5.12712e+06
5.09066e+06
5.04907e+06
5.01358e+06
4.95431e+06
4.92492e+06
4.87256e+06
4.85839e+06
4.83306e+06
4.80858e+06
4.79419e+06
4.75079e+06
4.71345e+06
4.67499e+06
4.63803e+06
4.60222e+06
4.56703e+06
4.53248e+06
4.49824e+06
4.46429e+06
4.43053e+06
4.39696e+06
4.36357e+06
4.33034e+06
4.29725e+06
4.26432e+06
4.23153e+06
4.19888e+06
4.16636e+06
4.13395e+06
4.10165e+06
4.06949e+06
4.03742e+06
4.00553e+06
3.97373e+06
3.9423e+06
3.91103e+06
3.88047e+06
3.8519e+06
3.82303e+06
3.80991e+06
3.77496e+06
3.73538e+06
3.70497e+06
3.68652e+06
3.64805e+06
3.61165e+06
3.58219e+06
3.54734e+06
3.51486e+06
3.50005e+06
3.47314e+06
3.43829e+06
3.40636e+06
3.38142e+06
3.35247e+06
3.3265e+06
3.31334e+06
3.29084e+06
3.25797e+06
3.22911e+06
3.20341e+06
3.17781e+06
3.15419e+06
3.13028e+06
3.107e+06
3.08368e+06
3.06022e+06
3.03737e+06
3.01327e+06
2.99186e+06
2.96735e+06
2.9499e+06
2.943e+06
2.91851e+06
2.90131e+06
2.87967e+06
2.8656e+06
2.8423e+06
2.82721e+06
2.81017e+06
2.80438e+06
2.7913e+06
2.81029e+06
2.77842e+06
2.68366e+06
2.72176e+06
2.69021e+06
2.68806e+06
2.67501e+06
2.66512e+06
2.65387e+06
2.64411e+06
2.63351e+06
2.62662e+06
2.61805e+06
2.61179e+06
2.60262e+06
2.59874e+06
2.5946e+06
2.59197e+06
2.59424e+06
2.60638e+06
2.6262e+06
2.66789e+06
2.67647e+06
2.63524e+06
2.14243e+06
1.56489e+07
1.8317e+07
1.9829e+07
1.99748e+07
1.97761e+07
1.95021e+07
1.92751e+07
1.90866e+07
1.89317e+07
1.87923e+07
1.86628e+07
1.8537e+07
1.84133e+07
1.82903e+07
1.81677e+07
1.80452e+07
1.79228e+07
1.78006e+07
1.76784e+07
1.75567e+07
1.74352e+07
1.73146e+07
1.71945e+07
1.70757e+07
1.69576e+07
1.68372e+07
1.67184e+07
1.65787e+07
1.64368e+07
1.6329e+07
1.62051e+07
1.60684e+07
1.59339e+07
1.58035e+07
1.57022e+07
1.56029e+07
1.54592e+07
1.53342e+07
1.52312e+07
1.51095e+07
1.5006e+07
1.48792e+07
1.47952e+07
1.46635e+07
1.42625e+07
1.42156e+07
1.42891e+07
1.41271e+07
1.40295e+07
1.38943e+07
1.3774e+07
1.3649e+07
1.35266e+07
1.34055e+07
1.32797e+07
1.31627e+07
1.30161e+07
1.28927e+07
1.27024e+07
1.26335e+07
1.25621e+07
1.24346e+07
1.23273e+07
1.22054e+07
1.20765e+07
1.19531e+07
1.18286e+07
1.17065e+07
1.15845e+07
1.14634e+07
1.13424e+07
1.12218e+07
1.11012e+07
1.09808e+07
1.08605e+07
1.07402e+07
1.06201e+07
1.05e+07
1.038e+07
1.026e+07
1.01402e+07
1.00204e+07
9.90067e+06
9.78106e+06
9.6615e+06
9.54212e+06
9.42278e+06
9.30399e+06
9.18533e+06
9.06809e+06
8.95185e+06
8.8369e+06
8.72726e+06
8.60152e+06
8.47182e+06
8.36179e+06
8.24818e+06
8.12127e+06
7.99902e+06
7.87935e+06
7.75747e+06
7.63995e+06
7.53417e+06
7.41542e+06
7.29096e+06
7.1734e+06
7.05839e+06
6.94235e+06
6.83023e+06
6.72448e+06
6.60754e+06
6.48682e+06
6.37148e+06
6.25718e+06
6.14417e+06
6.03208e+06
5.92002e+06
5.80836e+06
5.69663e+06
5.58506e+06
5.47398e+06
5.36286e+06
5.25446e+06
5.14533e+06
5.04413e+06
4.94715e+06
4.83079e+06
4.72229e+06
4.62168e+06
4.5179e+06
4.41187e+06
4.31078e+06
4.20765e+06
4.11221e+06
3.99813e+06
3.92573e+06
3.81628e+06
3.7158e+06
3.62187e+06
3.53994e+06
3.45811e+06
3.37453e+06
3.2932e+06
3.21304e+06
3.13634e+06
3.06021e+06
2.99151e+06
2.92303e+06
2.86334e+06
2.80362e+06
2.75034e+06
2.70199e+06
2.65656e+06
2.61931e+06
2.59452e+06
2.57747e+06
2.58955e+06
2.59552e+06
2.56082e+06
2.12852e+06
2.56455e+07
3.07914e+07
3.28485e+07
3.29752e+07
3.26646e+07
3.22538e+07
3.19178e+07
3.16262e+07
3.13811e+07
3.1154e+07
3.094e+07
3.07302e+07
3.05232e+07
3.0317e+07
3.01112e+07
2.99055e+07
2.96999e+07
2.94945e+07
2.92891e+07
2.90841e+07
2.88792e+07
2.8675e+07
2.84711e+07
2.82678e+07
2.8065e+07
2.78593e+07
2.76542e+07
2.74338e+07
2.72122e+07
2.70191e+07
2.681e+07
2.65924e+07
2.63685e+07
2.6146e+07
2.59487e+07
2.57911e+07
2.55711e+07
2.53514e+07
2.51722e+07
2.49668e+07
2.47927e+07
2.45688e+07
2.45767e+07
2.40585e+07
2.5932e+07
2.36568e+07
2.37623e+07
2.33418e+07
2.31561e+07
2.29215e+07
2.27164e+07
2.25067e+07
2.23008e+07
2.2097e+07
2.18888e+07
2.16939e+07
2.14577e+07
2.12909e+07
2.08533e+07
2.06338e+07
2.07543e+07
2.05016e+07
2.02732e+07
2.00621e+07
1.98439e+07
1.96367e+07
1.94278e+07
1.92221e+07
1.90163e+07
1.88114e+07
1.86065e+07
1.84019e+07
1.81974e+07
1.79929e+07
1.77885e+07
1.75841e+07
1.73798e+07
1.71756e+07
1.69713e+07
1.67671e+07
1.65629e+07
1.63588e+07
1.61547e+07
1.59507e+07
1.57467e+07
1.55428e+07
1.5339e+07
1.51357e+07
1.49325e+07
1.47304e+07
1.45292e+07
1.43283e+07
1.41306e+07
1.39185e+07
1.37026e+07
1.35112e+07
1.33122e+07
1.31015e+07
1.28952e+07
1.26898e+07
1.2484e+07
1.22821e+07
1.20878e+07
1.18822e+07
1.16736e+07
1.14706e+07
1.12687e+07
1.10672e+07
1.08682e+07
1.06731e+07
1.04695e+07
1.02634e+07
1.00614e+07
9.8599e+06
9.65981e+06
9.46025e+06
9.26085e+06
9.06163e+06
8.86232e+06
8.66312e+06
8.46432e+06
8.26572e+06
8.06932e+06
7.87277e+06
7.68162e+06
7.49044e+06
7.28508e+06
7.08952e+06
6.89901e+06
6.70351e+06
6.50817e+06
6.31527e+06
6.11727e+06
5.92863e+06
5.69189e+06
5.56054e+06
5.05122e+06
5.19134e+06
4.95124e+06
4.81495e+06
4.63485e+06
4.46305e+06
4.28906e+06
4.11741e+06
3.94932e+06
3.7818e+06
3.62277e+06
3.45846e+06
3.32445e+06
3.17938e+06
3.04064e+06
2.91232e+06
2.79106e+06
2.68139e+06
2.5868e+06
2.50678e+06
2.49174e+06
2.42505e+06
2.41047e+06
2.09401e+06
3.65802e+07
4.35537e+07
4.5845e+07
4.58836e+07
4.54574e+07
4.49301e+07
4.45066e+07
4.41263e+07
4.37996e+07
4.34894e+07
4.31935e+07
4.29014e+07
4.26121e+07
4.23234e+07
4.20352e+07
4.17471e+07
4.14591e+07
4.11711e+07
4.08833e+07
4.05956e+07
4.0308e+07
4.00208e+07
3.97337e+07
3.94468e+07
3.91599e+07
3.88704e+07
3.85807e+07
3.8281e+07
3.79816e+07
3.77028e+07
3.74095e+07
3.71143e+07
3.68004e+07
3.65018e+07
3.61909e+07
3.59124e+07
3.56685e+07
3.53812e+07
3.5112e+07
3.4821e+07
3.45447e+07
3.42289e+07
3.39818e+07
3.34604e+07
3.31266e+07
3.31703e+07
3.28677e+07
3.25434e+07
3.22563e+07
3.19533e+07
3.16647e+07
3.13738e+07
3.10857e+07
3.08009e+07
3.05126e+07
3.02486e+07
2.99444e+07
2.98344e+07
2.92808e+07
3.08443e+07
2.86997e+07
2.86807e+07
2.82162e+07
2.79445e+07
2.7632e+07
2.7344e+07
2.70519e+07
2.67639e+07
2.64754e+07
2.61879e+07
2.59003e+07
2.56129e+07
2.53255e+07
2.50382e+07
2.47509e+07
2.44637e+07
2.41764e+07
2.38892e+07
2.3602e+07
2.33148e+07
2.30276e+07
2.27404e+07
2.24533e+07
2.21662e+07
2.18791e+07
2.15921e+07
2.13052e+07
2.10186e+07
2.07322e+07
2.04465e+07
2.01613e+07
1.98757e+07
1.95917e+07
1.92973e+07
1.90027e+07
1.87256e+07
1.8441e+07
1.81495e+07
1.78605e+07
1.75719e+07
1.72835e+07
1.69979e+07
1.67173e+07
1.64286e+07
1.61375e+07
1.58504e+07
1.55641e+07
1.52785e+07
1.49947e+07
1.47132e+07
1.44253e+07
1.4136e+07
1.38493e+07
1.3563e+07
1.3278e+07
1.29934e+07
1.2709e+07
1.24248e+07
1.21405e+07
1.18563e+07
1.15725e+07
1.12889e+07
1.1007e+07
1.07251e+07
1.04464e+07
1.01672e+07
9.87726e+06
9.59468e+06
9.31668e+06
9.03429e+06
8.75256e+06
8.47195e+06
8.18868e+06
7.91215e+06
7.62142e+06
7.38232e+06
7.12827e+06
6.80247e+06
6.51756e+06
6.25916e+06
5.98756e+06
5.7216e+06
5.45459e+06
5.18949e+06
4.92762e+06
4.66385e+06
4.41145e+06
4.1291e+06
3.88843e+06
3.6907e+06
3.44213e+06
3.21611e+06
2.99714e+06
2.79175e+06
2.59989e+06
2.43017e+06
2.28313e+06
2.18516e+06
2.18175e+06
2.02591e+06
4.89415e+07
5.68477e+07
5.89123e+07
5.87749e+07
5.82721e+07
5.76712e+07
5.71949e+07
5.67446e+07
5.63457e+07
5.59566e+07
5.55802e+07
5.52058e+07
5.48339e+07
5.44622e+07
5.4091e+07
5.37198e+07
5.33486e+07
5.29775e+07
5.26063e+07
5.22353e+07
5.18643e+07
5.14934e+07
5.11224e+07
5.07513e+07
5.03799e+07
5.00061e+07
4.96321e+07
4.9252e+07
4.88722e+07
4.85089e+07
4.81328e+07
4.77617e+07
4.73586e+07
4.69751e+07
4.65199e+07
4.61932e+07
4.59116e+07
4.55231e+07
4.51634e+07
4.47925e+07
4.44201e+07
4.40277e+07
4.36444e+07
4.32004e+07
4.28396e+07
4.25643e+07
4.21933e+07
4.18363e+07
4.14704e+07
4.10913e+07
4.07205e+07
4.03475e+07
3.99765e+07
3.96078e+07
3.92375e+07
3.88788e+07
3.85116e+07
3.81697e+07
3.78314e+07
3.7141e+07
3.67958e+07
3.6652e+07
3.62412e+07
3.58983e+07
3.55159e+07
3.51474e+07
3.47738e+07
3.44032e+07
3.40318e+07
3.36612e+07
3.32903e+07
3.29196e+07
3.25489e+07
3.21783e+07
3.18076e+07
3.14369e+07
3.10663e+07
3.06956e+07
3.03249e+07
2.99542e+07
2.95835e+07
2.92129e+07
2.88422e+07
2.84716e+07
2.8101e+07
2.77305e+07
2.736e+07
2.69897e+07
2.66195e+07
2.62497e+07
2.58803e+07
2.55099e+07
2.51405e+07
2.47638e+07
2.43872e+07
2.40244e+07
2.36559e+07
2.32825e+07
2.29105e+07
2.25386e+07
2.21671e+07
2.17975e+07
2.14311e+07
2.10587e+07
2.06849e+07
2.03136e+07
1.99428e+07
1.9573e+07
1.92042e+07
1.88367e+07
1.84647e+07
1.80917e+07
1.77204e+07
1.73493e+07
1.69794e+07
1.66099e+07
1.62407e+07
1.58716e+07
1.55026e+07
1.51338e+07
1.47653e+07
1.4397e+07
1.40299e+07
1.36627e+07
1.32972e+07
1.29308e+07
1.2557e+07
1.21891e+07
1.1824e+07
1.14557e+07
1.10881e+07
1.07212e+07
1.03526e+07
9.98963e+06
9.62464e+06
9.27548e+06
8.9185e+06
8.53076e+06
8.16649e+06
7.80494e+06
7.44322e+06
7.08536e+06
6.72698e+06
6.37006e+06
6.01637e+06
5.66094e+06
5.32508e+06
4.9508e+06
4.80128e+06
4.26522e+06
3.95321e+06
3.60913e+06
3.28833e+06
2.97278e+06
2.66907e+06
2.3775e+06
2.1198e+06
1.91113e+06
1.87547e+06
1.90957e+06
6.2859e+07
7.02794e+07
7.1615e+07
7.12339e+07
7.07384e+07
7.01143e+07
6.96246e+07
6.9123e+07
6.86622e+07
6.81994e+07
6.77456e+07
6.72911e+07
6.68383e+07
6.63853e+07
6.59326e+07
6.54798e+07
6.50271e+07
6.45744e+07
6.41216e+07
6.36689e+07
6.3216e+07
6.27631e+07
6.23098e+07
6.18561e+07
6.14018e+07
6.09455e+07
6.04889e+07
6.00293e+07
5.95703e+07
5.91249e+07
5.86681e+07
5.82252e+07
5.77328e+07
5.73266e+07
5.65856e+07
5.60744e+07
5.60443e+07
5.55468e+07
5.50472e+07
5.45907e+07
5.41236e+07
5.36557e+07
5.31913e+07
5.27142e+07
5.22593e+07
5.18516e+07
5.14091e+07
5.09739e+07
5.05244e+07
5.00705e+07
4.96189e+07
4.91659e+07
4.87136e+07
4.82628e+07
4.78099e+07
4.73637e+07
4.69084e+07
4.64455e+07
4.59936e+07
4.5459e+07
4.4989e+07
4.46065e+07
4.4157e+07
4.3726e+07
4.32679e+07
4.28195e+07
4.23655e+07
4.19141e+07
4.14614e+07
4.10093e+07
4.05569e+07
4.01046e+07
3.96522e+07
3.91998e+07
3.87475e+07
3.82951e+07
3.78427e+07
3.73903e+07
3.69379e+07
3.64854e+07
3.60329e+07
3.55805e+07
3.5128e+07
3.46756e+07
3.42232e+07
3.37708e+07
3.33185e+07
3.28663e+07
3.24141e+07
3.19619e+07
3.15099e+07
3.10567e+07
3.0604e+07
3.01467e+07
2.96904e+07
2.92435e+07
2.87926e+07
2.83388e+07
2.78856e+07
2.74323e+07
2.69794e+07
2.65276e+07
2.60778e+07
2.56237e+07
2.51685e+07
2.47149e+07
2.42618e+07
2.38095e+07
2.33578e+07
2.29068e+07
2.24525e+07
2.19974e+07
2.15434e+07
2.10896e+07
2.06369e+07
2.01845e+07
1.97326e+07
1.92809e+07
1.88293e+07
1.8378e+07
1.7927e+07
1.74761e+07
1.70261e+07
1.65758e+07
1.61263e+07
1.56758e+07
1.52203e+07
1.47689e+07
1.43194e+07
1.38679e+07
1.34171e+07
1.29667e+07
1.25154e+07
1.2068e+07
1.16188e+07
1.11772e+07
1.07331e+07
1.02712e+07
9.8198e+06
9.37109e+06
8.92328e+06
8.47742e+06
8.03144e+06
7.58629e+06
7.14259e+06
6.69985e+06
6.25969e+06
5.82606e+06
5.34802e+06
4.91082e+06
4.50482e+06
4.06999e+06
3.64812e+06
3.22633e+06
2.81126e+06
2.39916e+06
2.00552e+06
1.65146e+06
1.50465e+06
1.70276e+06
7.97096e+07
8.38697e+07
8.44174e+07
8.3829e+07
8.35389e+07
8.29637e+07
8.24935e+07
8.19504e+07
8.14285e+07
8.08901e+07
8.03559e+07
7.98183e+07
7.92817e+07
7.87444e+07
7.82073e+07
7.767e+07
7.71329e+07
7.65957e+07
7.60585e+07
7.55212e+07
7.49836e+07
7.44458e+07
7.39075e+07
7.33683e+07
7.28282e+07
7.22864e+07
7.1744e+07
7.12009e+07
7.06589e+07
7.01305e+07
6.95929e+07
6.90862e+07
6.85247e+07
6.82e+07
6.73364e+07
6.89929e+07
6.62282e+07
6.60307e+07
6.52638e+07
6.47563e+07
6.41857e+07
6.36412e+07
6.3086e+07
6.25548e+07
6.20479e+07
6.15061e+07
6.09597e+07
6.04461e+07
5.99143e+07
5.9381e+07
5.88468e+07
5.83106e+07
5.77741e+07
5.72379e+07
5.66996e+07
5.61629e+07
5.56229e+07
5.50704e+07
5.45259e+07
5.39478e+07
5.34143e+07
5.28983e+07
5.23642e+07
5.18456e+07
5.13085e+07
5.07776e+07
5.02408e+07
4.97056e+07
4.91688e+07
4.86324e+07
4.80956e+07
4.75588e+07
4.70219e+07
4.64851e+07
4.59482e+07
4.54113e+07
4.48744e+07
4.43374e+07
4.38004e+07
4.32633e+07
4.27263e+07
4.21892e+07
4.16521e+07
4.11151e+07
4.05781e+07
4.00411e+07
3.95042e+07
3.89673e+07
3.84303e+07
3.78932e+07
3.73558e+07
3.68172e+07
3.62787e+07
3.57372e+07
3.51972e+07
3.46646e+07
3.41294e+07
3.35922e+07
3.3055e+07
3.25174e+07
3.19804e+07
3.1444e+07
3.09085e+07
3.03699e+07
2.98302e+07
2.92915e+07
2.87533e+07
2.8216e+07
2.7679e+07
2.71422e+07
2.6603e+07
2.60628e+07
2.55233e+07
2.49841e+07
2.44459e+07
2.39082e+07
2.33711e+07
2.28342e+07
2.22977e+07
2.17614e+07
2.12255e+07
2.06897e+07
2.01545e+07
1.96188e+07
1.90833e+07
1.85466e+07
1.80064e+07
1.74693e+07
1.69335e+07
1.63967e+07
1.58604e+07
1.53245e+07
1.47883e+07
1.42547e+07
1.37212e+07
1.31874e+07
1.26475e+07
1.21099e+07
1.15756e+07
1.10371e+07
1.05016e+07
9.967e+06
9.43253e+06
8.89835e+06
8.36487e+06
7.83094e+06
7.29639e+06
6.76471e+06
6.22568e+06
5.68992e+06
5.1678e+06
4.63928e+06
4.11627e+06
3.59246e+06
3.07382e+06
2.5568e+06
2.05147e+06
1.54775e+06
1.19382e+06
1.37425e+06
9.88961e+07
9.43655e+07
9.59694e+07
9.52905e+07
9.54435e+07
9.49488e+07
9.4513e+07
9.39296e+07
9.33488e+07
9.27378e+07
9.21277e+07
9.1512e+07
9.08968e+07
9.02807e+07
8.96648e+07
8.90488e+07
8.84329e+07
8.78169e+07
8.72009e+07
8.65848e+07
8.59684e+07
8.53516e+07
8.4734e+07
8.41153e+07
8.34952e+07
8.28732e+07
8.22504e+07
8.16276e+07
8.10071e+07
8.04005e+07
7.97869e+07
7.91957e+07
7.85769e+07
7.80171e+07
7.74148e+07
7.62434e+07
7.57601e+07
7.5484e+07
7.47812e+07
7.42194e+07
7.35794e+07
7.29606e+07
7.23346e+07
7.17451e+07
7.1146e+07
7.05115e+07
6.98858e+07
6.92917e+07
6.86836e+07
6.80746e+07
6.74632e+07