/*--------------------------------*- C++ -*----------------------------------*\
| =========                 |                                                 |
| \\      /  F ield         | OpenFOAM: The Open Source CFD Toolbox           |
|  \\    /   O peration     | Version:  v1912                                 |
|   \\  /    A nd           | Website:  www.openfoam.com                      |
|    \\/     M anipulation  |                                                 |
\*---------------------------------------------------------------------------*/
FoamFile
{
    version     2.0;
    format      ascii;
    class       volSymmTensorField;
    location    "1";
    object      sigma;
}
// * * * * * * * * * * * * * * * * * * * * * * * * * * * * * * * * * * * * * //

dimensions      [1 -1 -2 0 0 0 0];


internalField   nonuniform List<symmTensor> 
2560
(
(-1.1558e+08 -6.91605e+06 0 -5.74527e+06 0 -3.63975e+07)
(-1.06821e+08 -751451 3.31082e-07 -739598 8.60607e-08 -3.22683e+07)
(-1.08757e+08 104815 3.3692e-07 -875083 1.21637e-07 -3.28897e+07)
(-1.07937e+08 4318.1 3.1798e-07 -812089 -2.18123e-08 -3.26248e+07)
(-1.08168e+08 -40649.1 -3.35084e-07 -877462 -2.07056e-07 -3.27136e+07)
(-1.07618e+08 -110878 0 -885000 0 -3.25509e+07)
(-1.07134e+08 -140013 0 -892430 0 -3.2408e+07)
(-1.06475e+08 -157460 3.29806e-07 -889650 3.40037e-07 -3.22094e+07)
(-1.05818e+08 -164514 3.27769e-07 -886066 3.83911e-07 -3.20113e+07)
(-1.05126e+08 -167856 -3.25624e-07 -880614 -4.27488e-07 -3.1802e+07)
(-1.04435e+08 -169104 -3.23482e-07 -875087 -4.70772e-07 -3.15929e+07)
(-1.03737e+08 -169617 -2.05204e-06 -869248 -1.35503e-07 -3.13818e+07)
(-1.03039e+08 -169784 0 -863433 0 -3.11708e+07)
(-1.02341e+08 -169844 -2.39249e-06 -857567 -1.3368e-07 -3.09595e+07)
(-1.01643e+08 -169860 0 -851718 0 -3.07483e+07)
(-1.00944e+08 -169866 0 -845861 0 -3.0537e+07)
(-1.00246e+08 -169865 -2.8945e-06 -840017 -1.30943e-07 -3.03258e+07)
(-9.95476e+07 -169859 0 -834160 0 -3.01145e+07)
(-9.88497e+07 -169836 -3.2234e-06 -828324 -1.29119e-07 -2.99034e+07)
(-9.81513e+07 -169785 0 -822452 0 -2.96921e+07)
(-9.74545e+07 -169682 3.54769e-06 -816677 1.27297e-07 -2.94813e+07)
(-9.67557e+07 -169522 -2.99697e-07 -810735 -9.27779e-07 -2.92699e+07)
(-9.60627e+07 -169285 0 -805311 0 -2.90604e+07)
(-9.53605e+07 -169284 2.30812e-06 -798823 1.06941e-06 -2.88478e+07)
(-9.46769e+07 -169296 0 -795866 0 -2.86418e+07)
(-9.39584e+07 -173815 4.33825e-06 -784199 1.2274e-07 -2.84228e+07)
(-9.32524e+07 -175720 1.95748e-06 -800342 -1.06305e-06 -2.82158e+07)
(-9.25418e+07 -183392 -1.19257e-21 -744456 -5.15834e-21 -2.79859e+07)
(-9.16109e+07 -247056 5.08071e-06 -680313 1.32024e-06 -2.76874e+07)
(-9.09866e+07 -155729 0 -798936 0 -2.75357e+07)
(-9.03977e+07 -173613 0 -781464 0 -2.73538e+07)
(-8.96761e+07 -164455 4.97046e-06 -751514 -1.19565e-06 -2.71283e+07)
(-8.90282e+07 -169418 9.36031e-23 -748311 2.01719e-24 -2.69329e+07)
(-8.83091e+07 -171174 5.81579e-06 -739571 1.50168e-06 -2.67146e+07)
(-8.76141e+07 -171536 0 -734241 0 -2.65045e+07)
(-8.69066e+07 -170407 0 -728244 0 -2.62905e+07)
(-8.62124e+07 -169180 -2.6704e-07 -722212 -1.49439e-06 -2.60804e+07)
(-8.55178e+07 -168836 -2.12204e-22 -716506 -3.87556e-24 -2.58703e+07)
(-8.48255e+07 -168571 6.51978e-06 -710698 1.67581e-06 -2.56609e+07)
(-8.41334e+07 -168550 -2.606e-07 -704990 -1.5999e-06 -2.54515e+07)
(-8.34415e+07 -168868 2.58457e-07 -699138 1.6345e-06 -2.52422e+07)
(-8.27467e+07 -169530 -9.10578e-21 -693323 -5.92887e-20 -2.5032e+07)
(-8.2051e+07 -170503 -2.5415e-07 -687425 -1.70287e-06 -2.48215e+07)
(-8.13465e+07 -172607 0 -681000 0 -2.46082e+07)
(-8.06377e+07 -170838 -2.49771e-07 -676491 -1.77004e-06 -2.43942e+07)
(-7.99462e+07 -167314 4.95262e-07 -669550 3.60629e-06 -2.41847e+07)
(-7.92616e+07 -167734 0 -663615 0 -2.39776e+07)
(-7.85694e+07 -168848 4.32304e-21 -658342 3.31931e-20 -2.37683e+07)
(-7.78755e+07 -169342 1.52013e-05 -652309 2.03447e-07 -2.35583e+07)
(-7.71789e+07 -170001 -4.78117e-07 -646774 -3.86588e-06 -2.33477e+07)
(-7.64808e+07 -170079 4.73793e-07 -640825 3.92934e-06 -2.31365e+07)
(-7.57827e+07 -170226 -1.24257e-20 -635047 -1.05665e-19 -2.29253e+07)
(-7.50842e+07 -170209 -2.3257e-07 -629181 -2.02727e-06 -2.2714e+07)
(-7.43856e+07 -170351 -8.2295e-06 -623284 -9.71641e-08 -2.25027e+07)
(-7.36866e+07 -170467 -8.58005e-06 -617475 -2.18496e-06 -2.22912e+07)
(-7.29866e+07 -170945 -3.78433e-06 -611427 4.19034e-06 -2.20794e+07)
(-7.22845e+07 -171312 0 -605681 0 -2.18671e+07)
(-7.15815e+07 -171866 -2.21721e-07 -599492 -2.17871e-06 -2.16543e+07)
(-7.08746e+07 -171972 -1.94983e-21 -593710 -1.9612e-20 -2.14405e+07)
(-7.01726e+07 -169687 -4.69026e-06 -588232 -2.28304e-06 -2.12282e+07)
(-6.94815e+07 -168461 -4.10011e-06 -581709 4.48667e-06 -2.1019e+07)
(-6.87885e+07 -169567 -1.50638e-20 -576312 -1.62225e-19 -2.08094e+07)
(-6.80908e+07 -170066 -2.10909e-07 -570493 -2.32285e-06 -2.05984e+07)
(-6.73926e+07 -170466 -9.40028e-06 -564693 -8.80297e-08 -2.03872e+07)
(-6.66928e+07 -170594 -9.71762e-06 -558904 -2.46563e-06 -2.01755e+07)
(-6.59933e+07 -170511 4.08823e-07 -553011 4.81184e-06 -1.99639e+07)
(-6.52941e+07 -170427 -6.75091e-22 -547171 -5.91807e-24 -1.97524e+07)
(-6.45954e+07 -170309 3.2129e-21 -541286 4.36928e-20 -1.9541e+07)
(-6.3897e+07 -170238 9.9425e-06 -535435 8.34636e-08 -1.93297e+07)
(-6.31989e+07 -170182 -5.41525e-06 -529575 -5.06653e-06 -1.91185e+07)
(-6.25009e+07 -170158 -4.88206e-06 -523729 2.49777e-06 -1.89074e+07)
(-6.18029e+07 -170146 1.77878e-22 -517879 1.40041e-24 -1.86962e+07)
(-6.1105e+07 -170144 2.04034e-21 -512029 2.30033e-20 -1.84851e+07)
(-6.04072e+07 -170143 -1.04559e-05 -506186 -7.8905e-08 -1.8274e+07)
(-5.97093e+07 -170140 -1.074e-05 -500349 -2.71752e-06 -1.80629e+07)
(-5.90113e+07 -170139 -4.96101e-06 -494508 5.28955e-06 -1.78518e+07)
(-5.83133e+07 -170135 -1.35158e-20 -488664 -1.90064e-19 -1.76406e+07)
(-5.76153e+07 -170131 -6.6531e-21 -482809 -9.53962e-20 -1.74294e+07)
(-5.69172e+07 -170130 -2.75212e-21 -476956 -4.85961e-20 -1.72182e+07)
(-5.6219e+07 -170129 -5.86521e-06 -471109 -5.55517e-06 -1.7007e+07)
(-5.55208e+07 -170131 -5.56309e-06 -465256 -3.62612e-08 -1.67958e+07)
(-5.48226e+07 -170135 -1.08777e-05 -459394 5.53857e-06 -1.65846e+07)
(-5.41243e+07 -170134 1.13073e-05 -453541 7.06983e-08 -1.63734e+07)
(-5.3426e+07 -170141 -6.02905e-06 -447673 -5.73448e-06 -1.61621e+07)
(-5.27279e+07 -170151 -1.14838e-05 -441824 -6.88743e-08 -1.59509e+07)
(-5.20296e+07 -170179 -1.15704e-05 -435956 -6.79622e-08 -1.57397e+07)
(-5.13317e+07 -170210 -1.14967e-05 -430136 2.84764e-06 -1.55286e+07)
(-5.0633e+07 -170317 -1.22194e-21 -424227 -6.88386e-24 -1.53172e+07)
(-4.9935e+07 -170423 -6.06619e-06 -418488 -2.98913e-06 -1.51061e+07)
(-4.92342e+07 -170970 -1.19049e-05 -412301 -6.43115e-08 -1.4894e+07)
(-4.85339e+07 -171222 -5.99284e-06 -407049 -3.16974e-08 -1.46823e+07)
(-4.7829e+07 -173122 -1.17689e-05 -399597 5.97168e-06 -1.44686e+07)
(-4.71141e+07 -172282 1.21436e-05 -396657 6.15356e-08 -1.42532e+07)
(-4.64252e+07 -168272 -6.39787e-06 -386139 -6.14209e-06 -1.40434e+07)
(-4.57233e+07 -172711 -6.14845e-06 -370560 -2.98819e-08 -1.38281e+07)
(-4.50175e+07 -171985 -1.23725e-05 -382657 -5.87859e-08 -1.362e+07)
(-4.43086e+07 -172253 -5.94857e-06 -375165 6.19565e-06 -1.34051e+07)
(-4.36207e+07 -166805 1.25186e-05 -365517 5.69783e-08 -1.31959e+07)
(-4.29316e+07 -167696 -1.28561e-05 -359283 -6.35264e-06 -1.29873e+07)
(-4.2261e+07 -165746 -6.33023e-06 -353868 -2.76015e-08 -1.27845e+07)
(-4.15609e+07 -170683 -6.36493e-06 -337558 -2.71605e-08 -1.25695e+07)
(-4.09136e+07 -163171 -1.26717e-05 -326615 3.14683e-06 -1.23721e+07)
(-4.02522e+07 -204169 -1.2864e-05 -375625 -5.24591e-08 -1.21883e+07)
(-3.94483e+07 -175987 -1.30521e-05 -344336 -3.28474e-06 -1.19378e+07)
(-3.87496e+07 -172260 -1.2995e-05 -316435 -5.06412e-08 -1.17198e+07)
(-3.80397e+07 -170302 -6.52929e-06 -321722 -2.48395e-08 -1.15084e+07)
(-3.73626e+07 -162722 -6.32899e-06 -314457 6.53749e-06 -1.13031e+07)
(-3.66457e+07 -158331 1.31822e-05 -327052 4.78053e-08 -1.10918e+07)
(-3.61002e+07 -114431 -6.84538e-06 -312766 -6.64635e-06 -1.09239e+07)
(-3.53901e+07 -103129 -6.65112e-06 -218737 -2.32346e-08 -1.06827e+07)
(-3.44839e+07 -213886 -6.67868e-06 -271019 -2.25496e-08 -1.04265e+07)
(-3.38217e+07 -162459 -1.32057e-05 -301531 6.6649e-06 -1.0237e+07)
(-3.31364e+07 -173731 1.34704e-05 -279274 4.32785e-08 -1.00247e+07)
(-3.2435e+07 -168812 -6.96324e-06 -273029 -6.785e-06 -9.81242e+06)
(-3.1747e+07 -169800 -1.35777e-05 -266259 -4.14679e-08 -9.60398e+06)
(-3.1048e+07 -169856 -6.81477e-06 -260225 -2.02777e-08 -9.39247e+06)
(-3.03529e+07 -170112 -1.34922e-05 -254385 6.802e-06 -9.18219e+06)
(-2.96542e+07 -170276 1.37298e-05 -248463 3.8735e-08 -8.9708e+06)
(-2.89572e+07 -170412 -1.39576e-05 -242687 -6.92846e-06 -8.75997e+06)
(-2.82566e+07 -170497 -1.38255e-05 -236811 -3.69092e-08 -8.54801e+06)
(-2.75616e+07 -170409 -1.38716e-05 -231198 -3.60007e-08 -8.33783e+06)
(-2.68541e+07 -169941 -6.79193e-06 -226017 6.94226e-06 -8.12405e+06)
(-2.61763e+07 -166058 1.39604e-05 -221400 3.41856e-08 -7.9193e+06)
(-2.5453e+07 -163953 -1.41608e-05 -227086 -7.03624e-06 -7.70402e+06)
(-2.48596e+07 -130284 -7.02275e-06 -217586 -1.62217e-08 -7.52317e+06)
(-2.41583e+07 -123411 -7.04282e-06 -152498 -1.58556e-08 -7.29323e+06)
(-2.33199e+07 -199914 -6.98945e-06 -176988 3.51648e-06 -7.04906e+06)
(-2.26478e+07 -166102 -2.49172e-21 -201019 -1.25814e-19 -6.85465e+06)
(-2.19544e+07 -171821 -1.42671e-05 -186223 -3.57922e-06 -6.64217e+06)
(-2.12628e+07 -167806 -7.1174e-06 -178386 -1.38866e-08 -6.43235e+06)
(-2.0576e+07 -169466 -7.13468e-06 -172767 -1.34378e-08 -6.22462e+06)
(-1.98791e+07 -169507 -7.02823e-06 -166511 7.13991e-06 -6.01369e+06)
(-1.91856e+07 -169937 1.4335e-05 -160855 2.50604e-08 -5.80394e+06)
(-1.84883e+07 -169942 -7.29761e-06 -154957 -7.19667e-06 -5.59299e+06)
(-1.77933e+07 -170279 -1.43961e-05 -149126 -2.32419e-08 -5.38274e+06)
(-1.7094e+07 -171144 -7.21249e-06 -142769 -1.11649e-08 -5.17103e+06)
(-1.63938e+07 -170494 -7.12475e-06 -137204 7.21712e-06 -4.9593e+06)
(-1.5698e+07 -169716 1.44791e-05 -131613 2.05048e-08 -4.74887e+06)
(-1.50025e+07 -170184 -7.34516e-06 -125618 -7.26354e-06 -4.53845e+06)
(-1.43038e+07 -170770 -1.45287e-05 -119964 -1.86836e-08 -4.32713e+06)
(-1.36045e+07 -170705 -7.27586e-06 -114012 -8.88522e-09 -4.11556e+06)
(-1.29058e+07 -170753 -7.20686e-06 -108197 7.27991e-06 -3.90419e+06)
(-1.22068e+07 -170663 1.45944e-05 -102306 1.59447e-08 -3.69272e+06)
(-1.15084e+07 -170624 -1.46852e-05 -96418 -7.32353e-06 -3.48144e+06)
(-1.08098e+07 -170636 -7.31619e-06 -90559 -7.06005e-09 -3.27012e+06)
(-1.01114e+07 -170645 -1.46497e-05 -84753.8 -1.32076e-08 -3.05884e+06)
(-9.41285e+06 -170656 -7.30374e-06 -78871.4 3.66106e-06 -2.84752e+06)
(-8.71417e+06 -170630 1.88802e-21 -72980.2 3.26046e-19 -2.63614e+06)
(-8.01594e+06 -170426 -7.37212e-06 -67160 -3.67964e-06 -2.42493e+06)
(-7.31866e+06 -170286 -7.35362e-06 -61305.9 -4.77992e-09 -2.21399e+06)
(-6.6215e+06 -170290 -1.47187e-05 -55481 -8.64911e-09 -2.00309e+06)
(-5.92434e+06 -170102 -1.47108e-05 -49677.7 3.6753e-06 -1.79221e+06)
(-5.22872e+06 -169572 -2.20771e-22 -43982.3 6.61191e-20 -1.58181e+06)
(-4.53547e+06 -168211 -1.47604e-05 -38452.6 -3.69327e-06 -1.37218e+06)
(-3.85057e+06 -165267 -1.47533e-05 -33442.4 -5.02597e-09 -1.1652e+06)
(-3.17718e+06 -158749 -7.37961e-06 -29601.9 -2.07045e-09 -962036)
(-2.54205e+06 -148036 -1.47485e-05 -28873.8 7.38013e-06 -771276)
(-1.93146e+06 -128202 1.47688e-05 -30725.5 2.47767e-09 -588656)
(-1.4447e+06 -149246 -7.39596e-06 -30477.9 -7.38931e-06 -442553)
(-639670 -361488 -7.39267e-06 218394 -1.53112e-09 -126383)
(-9.62314e+07 -8.77262e+06 0 -9.22508e+06 0 -3.1637e+07)
(-9.536e+07 -1.46933e+06 -1.40516e-08 -1.16429e+06 -7.93316e-08 -2.89573e+07)
(-9.48574e+07 -123759 4.83812e-07 130209 2.5356e-07 -2.84182e+07)
(-9.38267e+07 -164837 -2.92391e-07 539887 -3.26379e-07 -2.7986e+07)
(-9.35124e+07 -229583 -8.24564e-07 525788 -2.52436e-07 -2.7896e+07)
(-9.28718e+07 -376006 0 516498 0 -2.77066e+07)
(-9.23668e+07 -438974 0 488576 0 -2.75635e+07)
(-9.17663e+07 -480882 1.63836e-06 475917 9.27976e-07 -2.73871e+07)
(-9.1188e+07 -497697 2.8409e-07 465619 7.68259e-07 -2.72167e+07)
(-9.0587e+07 -506396 1.41963e-06 460072 -6.11189e-07 -2.70381e+07)
(-8.99901e+07 -509577 1.87493e-06 455500 2.42614e-07 -2.68604e+07)
(-8.93883e+07 -511019 8.60782e-22 452007 -2.02003e-21 -2.66809e+07)
(-8.87874e+07 -511468 2.21767e-06 448699 2.39367e-07 -2.65016e+07)
(-8.81856e+07 -511648 0 445603 0 -2.6322e+07)
(-8.75841e+07 -511683 2.28295e-06 442527 -1.04632e-06 -2.61425e+07)
(-8.69823e+07 -511691 1.63255e-06 439486 1.48336e-06 -2.59628e+07)
(-8.63807e+07 -511672 1.19507e-21 436424 6.43577e-21 -2.57833e+07)
(-8.5779e+07 -511630 3.05435e-06 433382 2.31255e-07 -2.56037e+07)
(-8.51776e+07 -511547 -3.21823e-06 430293 -2.29634e-07 -2.54242e+07)
(-8.45758e+07 -511376 2.85398e-06 427268 -3.16202e-06 -2.52446e+07)
(-8.39754e+07 -511091 3.54252e-06 424077 2.26392e-07 -2.50654e+07)
(-8.33731e+07 -510659 1.85147e-06 421219 1.12385e-07 -2.48856e+07)
(-8.27761e+07 -509957 -2.06004e-06 417943 -1.07939e-06 -2.47074e+07)
(-8.21712e+07 -510711 4.27631e-06 416310 2.23623e-06 -2.45265e+07)
(-8.15846e+07 -508553 1.96156e-06 415112 -9.36596e-07 -2.43508e+07)
(-8.09751e+07 -531956 4.20671e-06 418405 -8.67213e-07 -2.4167e+07)
(-8.03999e+07 -500884 2.24382e-06 437909 1.08476e-07 -2.39886e+07)
(-7.98774e+07 -649587 -4.76173e-06 379530 -1.37741e-06 -2.38494e+07)
(-7.88684e+07 -436556 2.64288e-06 287466 2.50717e-06 -2.35743e+07)
(-7.82414e+07 -342610 5.19246e-06 389362 2.6883e-06 -2.33556e+07)
(-7.79345e+07 -485405 4.85219e-06 421061 -2.34154e-06 -2.3254e+07)
(-7.72761e+07 -482508 5.00264e-06 399567 -2.41759e-06 -2.3063e+07)
(-7.67209e+07 -507813 -5.39072e-06 392356 -2.06865e-07 -2.28986e+07)
(-7.60986e+07 -514070 3.00561e-06 386733 2.87569e-06 -2.27136e+07)
(-7.55e+07 -515861 3.07638e-06 380991 2.94752e-06 -2.25357e+07)
(-7.48905e+07 -512887 5.82644e-06 376594 2.0189e-07 -2.23542e+07)
(-7.42916e+07 -509432 5.73796e-06 374674 -2.78895e-06 -2.21751e+07)
(-7.36922e+07 -508469 -6.3408e-06 371778 -3.25879e-06 -2.19961e+07)
(-7.30944e+07 -507647 3.35367e-06 369180 3.22899e-06 -2.18176e+07)
(-7.24972e+07 -507486 3.19573e-06 366338 9.77244e-08 -2.16392e+07)
(-7.19002e+07 -508305 -6.30587e-06 363885 3.07561e-06 -2.14609e+07)
(-7.13015e+07 -509956 -1.8505e-21 361200 -5.33548e-23 -2.12821e+07)
(-7.07033e+07 -512527 -3.62189e-06 358608 -3.50149e-06 -2.11034e+07)
(-7.00982e+07 -518334 -5.29867e-21 356052 -9.19276e-20 -2.09226e+07)
(-6.94913e+07 -513317 -3.75245e-06 346112 -3.63418e-06 -2.07436e+07)
(-6.88947e+07 -503983 -3.173e-06 346434 7.1206e-06 -2.05645e+07)
(-6.83022e+07 -505375 7.33596e-06 346522 1.84148e-07 -2.03867e+07)
(-6.77042e+07 -508489 -7.88813e-06 342250 -7.65784e-06 -2.02086e+07)
(-6.71047e+07 -509750 2.16133e-20 340094 5.40143e-19 -2.00294e+07)
(-6.65042e+07 -511546 -3.86178e-06 336101 -8.96463e-08 -1.98504e+07)
(-6.59023e+07 -511732 -7.43986e-06 333224 7.6819e-06 -1.96707e+07)
(-6.53009e+07 -512134 -2.21385e-21 329940 -4.88631e-23 -1.94913e+07)
(-6.4699e+07 -512087 -4.05043e-06 326938 -8.72127e-08 -1.93116e+07)
(-6.40971e+07 -512469 1.99686e-07 324070 4.11671e-06 -1.91319e+07)
(-6.34951e+07 -512759 -4.47003e-06 320963 -6.35239e-06 -1.89523e+07)
(-6.28922e+07 -514059 -8.27184e-06 318512 4.06889e-06 -1.87721e+07)
(-6.22884e+07 -514996 -9.70253e-08 314853 -2.14922e-06 -1.85921e+07)
(-6.16836e+07 -516549 -4.54544e-06 312333 -4.44101e-06 -1.84114e+07)
(-6.1076e+07 -516833 -8.72904e-06 307453 2.04369e-06 -1.82305e+07)
(-6.04716e+07 -510715 -9.03483e-06 302095 -2.40043e-06 -1.80508e+07)
(-5.98739e+07 -507457 -8.77617e-06 303230 6.63731e-06 -1.78712e+07)
(-5.92754e+07 -510471 -9.23323e-08 300125 -2.2948e-06 -1.76926e+07)
(-5.86731e+07 -511739 -9.28319e-06 296922 -1.58183e-07 -1.75129e+07)
(-5.80711e+07 -512753 1.80913e-07 293741 4.7021e-06 -1.73332e+07)
(-5.74681e+07 -513070 -5.11099e-06 290271 -9.59243e-06 -1.71533e+07)
(-5.68654e+07 -512815 -9.4383e-06 287245 4.65898e-06 -1.69735e+07)
(-5.62631e+07 -512578 9.7239e-06 284103 1.51681e-07 -1.67937e+07)
(-5.5661e+07 -512251 -5.089e-06 281137 -4.99518e-06 -1.6614e+07)
(-5.50593e+07 -512061 8.57646e-08 278104 2.48661e-06 -1.64344e+07)
(-5.44577e+07 -511914 -5.10598e-06 275105 -2.58626e-06 -1.62548e+07)
(-5.38562e+07 -511845 -1.00622e-05 272077 2.39361e-06 -1.60752e+07)
(-5.32548e+07 -511798 -1.03318e-05 269052 -2.70805e-06 -1.58957e+07)
(-5.26534e+07 -511783 -1.01863e-05 266019 5.03776e-06 -1.57162e+07)
(-5.2052e+07 -511780 1.62161e-07 262978 5.2299e-06 -1.55367e+07)
(-5.14506e+07 -511794 -5.51539e-06 259925 -7.98861e-06 -1.53572e+07)
(-5.08492e+07 -511820 -1.04896e-05 256882 5.19145e-06 -1.51777e+07)
(-5.02478e+07 -511841 -7.82698e-08 253837 -2.6885e-06 -1.49982e+07)
(-4.96463e+07 -511863 -5.42033e-06 250808 -6.69218e-08 -1.48186e+07)
(-4.90447e+07 -511886 1.10117e-05 247777 2.86831e-06 -1.46391e+07)
(-4.84431e+07 -511905 -5.74073e-06 244729 -8.34365e-06 -1.44595e+07)
(-4.78415e+07 -511927 -1.10465e-05 241688 2.65355e-06 -1.42799e+07)
(-4.72398e+07 -511947 -1.11386e-05 238674 2.67795e-06 -1.41004e+07)
(-4.66382e+07 -511944 1.12295e-05 235644 -2.70207e-06 -1.39208e+07)
(-4.60365e+07 -511938 -1.1391e-05 232638 -1.24112e-07 -1.37412e+07)
(-4.5435e+07 -511926 -1.14079e-05 229599 2.74945e-06 -1.35616e+07)
(-4.48333e+07 -511952 -1.15652e-05 226601 -1.20869e-07 -1.3382e+07)
(-4.4232e+07 -511999 -1.16506e-05 223539 -1.19247e-07 -1.32025e+07)
(-4.36299e+07 -512270 -6.79615e-08 220662 -2.93597e-06 -1.30228e+07)
(-4.30289e+07 -512499 -1.18178e-05 217597 -1.16005e-07 -1.28434e+07)
(-4.24256e+07 -514106 -1.18997e-05 215230 -1.14383e-07 -1.26631e+07)
(-4.18243e+07 -514195 -1.19805e-05 212022 -1.12761e-07 -1.24837e+07)
(-4.12193e+07 -520718 -1.19958e-05 210117 2.90617e-06 -1.23028e+07)
(-4.06087e+07 -514571 1.20751e-05 204717 -2.92741e-06 -1.21212e+07)
(-4.00139e+07 -508044 -1.22777e-05 188418 -3.16388e-06 -1.19477e+07)
(-3.93724e+07 -518702 -1.22304e-05 195701 2.9691e-06 -1.1753e+07)
(-3.87678e+07 -514049 -1.23674e-05 199992 -1.04542e-07 -1.15703e+07)
(-3.81864e+07 -512797 -1.24409e-05 189847 -1.02929e-07 -1.1399e+07)
(-3.75877e+07 -500070 1.25721e-05 190796 3.23196e-06 -1.12191e+07)
(-3.69945e+07 -503238 -1.26427e-05 185250 -3.24822e-06 -1.10428e+07)
(-3.64154e+07 -493022 -1.27122e-05 181206 -3.26422e-06 -1.08703e+07)
(-3.57954e+07 -496977 -1.26691e-05 169070 3.087e-06 -1.06879e+07)
(-3.53259e+07 -433947 -1.26295e-05 181858 9.50645e-06 -1.05432e+07)
(-3.47173e+07 -477854 4.56884e-21 224294 3.336e-23 -1.03479e+07)
(-3.39314e+07 -573631 -1.30294e-05 182108 -6.55846e-06 -1.01248e+07)
(-3.33688e+07 -507370 -1.30419e-05 153621 -3.3396e-06 -9.96454e+06)
(-3.27645e+07 -518306 -1.31044e-05 160330 -3.35393e-06 -9.78126e+06)
(-3.21809e+07 -509966 -1.30655e-05 155197 3.19447e-06 -9.60773e+06)
(-3.14725e+07 -492595 1.31771e-05 155822 8.48283e-08 -9.395e+06)
(-3.10361e+07 -517056 -1.32853e-05 151383 -3.39516e-06 -9.26541e+06)
(-2.94977e+07 -673383 -1.45958e-05 12559.1 2.57631e-06 -8.84555e+06)
(-2.97972e+07 -481990 -1.33075e-05 169643 3.26016e-06 -8.88828e+06)
(-2.9052e+07 -487965 -1.3365e-05 151616 3.27639e-06 -8.67012e+06)
(-2.85569e+07 -503751 1.34209e-05 145009 -3.2916e-06 -8.52358e+06)
(-2.79428e+07 -506698 -1.35195e-05 142291 -7.53393e-08 -8.34016e+06)
(-2.73561e+07 -509216 -1.35725e-05 138575 -7.3753e-08 -8.16527e+06)
(-2.67531e+07 -510657 -1.36244e-05 135680 -7.21282e-08 -7.98523e+06)
(-2.61546e+07 -511351 -1.36343e-05 132319 3.35053e-06 -7.80668e+06)
(-2.55524e+07 -511904 1.37247e-05 129360 6.88895e-08 -7.62691e+06)
(-2.4952e+07 -512366 -1.37731e-05 126118 -6.72695e-08 -7.44775e+06)
(-2.43479e+07 -512612 -1.38203e-05 123236 -6.5642e-08 -7.2674e+06)
(-2.37491e+07 -513399 -1.39034e-05 119605 -3.53291e-06 -7.08885e+06)
(-2.31346e+07 -512280 -1.39114e-05 116702 -6.23686e-08 -6.90538e+06)
(-2.25487e+07 -513981 1.39903e-05 109938 3.55183e-06 -6.73163e+06)
(-2.18599e+07 -504441 -1.4032e-05 109682 -3.56066e-06 -6.52507e+06)
(-2.1376e+07 -515431 -1.40726e-05 102477 -3.56971e-06 -6.38204e+06)
(-2.01051e+07 -621777 -1.54675e-05 11300.2 2.76002e-06 -6.02813e+06)
(-2.01368e+07 -487830 -1.40881e-05 113536 3.47766e-06 -6.00699e+06)
(-1.9456e+07 -497232 3.03038e-08 94648.2 3.54159e-06 -5.80841e+06)
(-1.89261e+07 -505008 -1.42236e-05 95874.8 -3.60179e-06 -5.64908e+06)
(-1.83206e+07 -503492 -1.42583e-05 94374.3 -3.60907e-06 -5.46788e+06)
(-1.77318e+07 -508661 -1.42642e-05 90196.9 -4.78079e-08 -5.29249e+06)
(-1.71296e+07 -509406 -1.42709e-05 87219.3 3.53048e-06 -5.11271e+06)
(-1.65316e+07 -510648 1.43299e-05 83768.3 4.457e-08 -4.93436e+06)
(-1.59306e+07 -510669 -1.4361e-05 80562 -4.29484e-08 -4.755e+06)
(-1.53316e+07 -511354 -1.4391e-05 78145.3 -4.13373e-08 -4.57602e+06)
(-1.47297e+07 -513335 -1.44427e-05 74847.8 -3.64694e-06 -4.39645e+06)
(-1.4129e+07 -512119 -1.44254e-05 68960.2 3.57606e-06 -4.218e+06)
(-1.3528e+07 -510692 1.44739e-05 68486 3.64716e-08 -4.03785e+06)
(-1.29272e+07 -511512 -1.44993e-05 66419 -3.4858e-08 -3.85825e+06)
(-1.23252e+07 -513071 -1.45235e-05 62428 -3.32289e-08 -3.67882e+06)
(-1.17223e+07 -512792 -1.45648e-05 59419.8 -3.67052e-06 -3.49887e+06)
(-1.11205e+07 -512887 -1.45511e-05 56127.1 3.61441e-06 -3.31931e+06)
(-1.05182e+07 -512630 1.46056e-05 53108.8 3.67793e-06 -3.13954e+06)
(-9.91661e+06 -512535 -1.46242e-05 50074.3 -3.68121e-06 -2.95996e+06)
(-9.31478e+06 -512562 -1.46272e-05 47096.2 -2.51124e-08 -2.7803e+06)
(-8.71303e+06 -512570 -1.46445e-05 43941 -2.34894e-08 -2.60073e+06)
(-8.11121e+06 -512607 -1.46606e-05 40988.6 -2.18674e-08 -2.42107e+06)
(-7.50927e+06 -512544 7.16942e-22 37848.2 6.52138e-20 -2.24143e+06)
(-6.90765e+06 -512009 -1.47002e-05 34637.9 -3.69325e-06 -2.0619e+06)
(-6.30666e+06 -511628 -1.46922e-05 31787.5 3.66079e-06 -1.88246e+06)
(-5.70579e+06 -511628 -1.47047e-05 28695.6 3.66528e-06 -1.70313e+06)
(-5.10474e+06 -511121 -1.47239e-05 25495 -1.37603e-08 -1.52377e+06)
(-4.5045e+06 -509783 0 21850.1 0 -1.34479e+06)
(-3.90478e+06 -506538 -1.47413e-05 17623.3 -1.0514e-08 -1.16615e+06)
(-3.30818e+06 -499853 -1.47534e-05 12314.9 -3.69818e-06 -988758)
(-2.71202e+06 -485911 -1.47543e-05 5584.97 -7.261e-09 -811930)
(-2.12324e+06 -465466 -1.47561e-05 -2046.75 3.68627e-06 -637585)
(-1.51967e+06 -434401 1.47617e-05 2550.45 -3.68889e-06 -455137)
(-900193 -476278 -1.47685e-05 78309.3 -2.88546e-09 -246565)
(-225103 -682612 -7.38643e-06 579826 3.69222e-06 106417)
(-8.08266e+07 -6.55396e+06 1.27172e-07 -1.27915e+07 -2.41038e-08 -2.80854e+07)
(-8.19065e+07 -1.44522e+06 -1.10782e-22 -3.22793e+06 -7.74536e-23 -2.55403e+07)
(-8.13401e+07 -688727 4.7106e-07 -869378 2.11328e-07 -2.46628e+07)
(-8.0231e+07 -525391 2.49267e-07 -106195 3.2646e-07 -2.41012e+07)
(-7.96772e+07 -547565 -1.06738e-06 -111074 -6.26396e-07 -2.39365e+07)
(-7.89915e+07 -659602 2.52566e-07 -133050 -3.98978e-07 -2.37374e+07)
(-7.84874e+07 -712280 -1.41622e-06 -187344 -8.00534e-07 -2.36024e+07)
(-7.79432e+07 -752759 2.42015e-07 -211308 6.80894e-07 -2.34463e+07)
(-7.74379e+07 -769199 2.52582e-06 -226789 1.07602e-06 -2.32994e+07)
(-7.69214e+07 -778625 -4.77621e-07 -232038 -1.71158e-06 -2.3146e+07)
(-7.64125e+07 -782075 4.8221e-21 -234125 1.27342e-20 -2.2994e+07)
(-7.59007e+07 -783801 3.06413e-06 -233835 3.01179e-07 -2.28404e+07)
(-7.53903e+07 -784341 5.4774e-21 -232882 1.50506e-20 -2.2687e+07)
(-7.48792e+07 -784585 4.76638e-06 -231480 3.96158e-07 -2.25332e+07)
(-7.43685e+07 -784634 2.43624e-06 -229988 -4.44677e-07 -2.23795e+07)
(-7.38575e+07 -784645 2.29291e-07 -228425 1.36648e-06 -2.22258e+07)
(-7.33467e+07 -784615 5.65655e-06 -226881 -3.36736e-07 -2.20721e+07)
(-7.28358e+07 -784547 2.26119e-07 -225318 1.53208e-06 -2.19183e+07)
(-7.23252e+07 -784419 4.82116e-06 -223842 2.86982e-07 -2.17647e+07)
(-7.18141e+07 -784153 2.93093e-06 -222302 -3.20079e-06 -2.16109e+07)
(-7.13044e+07 -783728 -3.42772e-06 -221032 6.99462e-07 -2.14576e+07)
(-7.07926e+07 -782909 3.80871e-06 -219366 1.11545e-06 -2.13036e+07)
(-7.0287e+07 -781655 -3.9672e-06 -218389 -1.15392e-06 -2.11516e+07)
(-6.97715e+07 -779813 -2.00812e-06 -215369 -9.22848e-08 -2.09961e+07)
(-6.92925e+07 -774528 2.08663e-06 -212660 9.16551e-08 -2.08516e+07)
(-6.87501e+07 -773010 -4.32912e-06 -205133 -1.81912e-07 -2.06866e+07)
(-6.85113e+07 -734192 -2.02943e-06 -205481 2.15801e-06 -2.0615e+07)
(-6.76321e+07 -734850 -4.63757e-06 -231511 -1.78769e-07 -2.03591e+07)
(-6.94839e+07 -1.15991e+06 -4.45409e-06 70412.4 -1.61468e-06 -2.0824e+07)
(-6.65876e+07 -773897 2.36705e-06 -232055 -1.15064e-06 -2.00459e+07)
(-6.64457e+07 -747148 0 -190327 0 -1.99908e+07)
(-6.56521e+07 -782265 -5.03512e-06 -183005 2.45263e-06 -1.97505e+07)
(-6.51725e+07 -783717 -5.28538e-06 -192734 1.17766e-06 -1.96096e+07)
(-6.46237e+07 -792004 -5.63321e-06 -195055 -1.55772e-06 -1.94456e+07)
(-6.41134e+07 -791540 -9.95194e-08 -199330 -1.42306e-06 -1.92938e+07)
(-6.35938e+07 -786844 -9.87107e-08 -200911 -1.45907e-06 -1.91384e+07)
(-6.30847e+07 -781583 1.95844e-07 -196816 2.98959e-06 -1.89845e+07)
(-6.25751e+07 -780279 -6.00998e-06 -194652 1.36472e-06 -1.88309e+07)
(-6.20664e+07 -779008 -6.34415e-06 -192267 -1.72959e-06 -1.86776e+07)
(-6.15586e+07 -778578 3.28923e-06 -190220 1.68172e-06 -1.85246e+07)
(-6.10512e+07 -779505 -6.24147e-06 -187350 4.7432e-06 -1.83716e+07)
(-6.05432e+07 -781317 6.56906e-06 -185137 -1.50906e-06 -1.82185e+07)
(-6.00374e+07 -784547 -1.86392e-07 -181731 -3.40654e-06 -1.80657e+07)
(-5.95244e+07 -792929 -2.462e-21 -180905 -4.62838e-20 -1.79116e+07)
(-5.9012e+07 -786201 -7.15941e-06 -194420 -1.92648e-06 -1.77619e+07)
(-5.85046e+07 -773834 -7.10961e-06 -184185 1.6488e-06 -1.76066e+07)
(-5.80005e+07 -775925 7.4219e-06 -175452 1.98987e-06 -1.74528e+07)
(-5.74913e+07 -780715 -7.28368e-06 -176467 3.58593e-06 -1.73003e+07)
(-5.69801e+07 -782097 -7.67982e-06 -173737 -2.05206e-06 -1.71462e+07)
(-5.64699e+07 -784536 -7.89474e-06 -174131 -4.01607e-06 -1.69932e+07)
(-5.59582e+07 -784642 -7.58577e-06 -172538 5.74719e-06 -1.68392e+07)
(-5.54476e+07 -785165 7.88605e-06 -171430 -1.84984e-06 -1.66857e+07)
(-5.49366e+07 -785048 -1.70551e-07 -169781 -4.05534e-06 -1.65319e+07)
(-5.44256e+07 -785553 8.2202e-06 -167846 1.43975e-07 -1.6378e+07)
(-5.3915e+07 -785853 8.90803e-21 -166222 1.29949e-19 -1.62244e+07)
(-5.34035e+07 -787642 2.4869e-07 -163463 6.35822e-06 -1.60701e+07)
(-5.2892e+07 -788780 8.50151e-06 -162868 -2.00949e-06 -1.59165e+07)
(-5.23795e+07 -791223 -4.3512e-06 -160225 -6.92855e-08 -1.57619e+07)
(-5.18639e+07 -792007 8.05041e-08 -163091 2.20852e-06 -1.56081e+07)
(-5.13507e+07 -783550 -1.59409e-07 -165637 -4.47522e-06 -1.54549e+07)
(-5.0842e+07 -778811 1.57842e-07 -155445 4.53284e-06 -1.52992e+07)
(-5.03332e+07 -783396 9.16602e-06 -153713 1.33159e-07 -1.51461e+07)
(-4.98203e+07 -785054 -1.54669e-07 -152874 -4.6465e-06 -1.4992e+07)
(-4.93086e+07 -786230 9.31443e-06 -151761 -2.22079e-06 -1.48381e+07)
(-4.87964e+07 -786578 8.4244e-22 -151103 -1.06011e-19 -1.46843e+07)
(-4.82847e+07 -786120 -9.53638e-06 -149552 2.2786e-06 -1.45303e+07)
(-4.77734e+07 -785769 9.64562e-06 -148135 -2.30706e-06 -1.43765e+07)
(-4.72622e+07 -785292 -9.68034e-06 -146419 4.79549e-06 -1.42226e+07)
(-4.67513e+07 -785023 -3.09063e-20 -144801 -8.17311e-19 -1.40688e+07)
(-4.62405e+07 -784812 -1.43554e-07 -143133 -5.02606e-06 -1.39151e+07)
(-4.57298e+07 -784712 -4.85806e-06 -141513 7.55648e-06 -1.37614e+07)
(-4.52191e+07 -784644 -7.27929e-21 -139901 -8.49938e-23 -1.36077e+07)
(-4.47085e+07 -784620 -1.38798e-07 -138311 -5.18008e-06 -1.3454e+07)
(-4.41978e+07 -784618 1.0378e-05 -136730 -2.49821e-06 -1.33004e+07)
(-4.36872e+07 -784641 5.2729e-06 -135166 5.77829e-08 -1.31467e+07)
(-4.31765e+07 -784683 -5.12087e-06 -133585 7.93624e-06 -1.2993e+07)
(-4.26658e+07 -784723 1.06745e-05 -132013 -2.57581e-06 -1.28393e+07)
(-4.21551e+07 -784764 -1.09674e-05 -130429 -5.53675e-06 -1.26856e+07)
(-4.16443e+07 -784803 1.09311e-05 -128835 1.10162e-07 -1.25319e+07)
(-4.11335e+07 -784838 -2.07244e-21 -127261 -7.30449e-20 -1.23782e+07)
(-4.06226e+07 -784873 -5.49538e-06 -125685 2.72898e-06 -1.22245e+07)
(-4.01118e+07 -784899 0 -124072 0 -1.20708e+07)
(-3.96009e+07 -784894 1.1298e-05 -122466 1.04757e-07 -1.1917e+07)
(-3.90901e+07 -784880 -1.70803e-05 -120838 -1.55108e-07 -1.17633e+07)
(-3.85793e+07 -784853 0 -119249 0 -1.16096e+07)
(-3.80684e+07 -784863 0 -117608 0 -1.14558e+07)
(-3.7558e+07 -784890 -1.16464e-05 -116019 -9.93532e-08 -1.13022e+07)
(-3.70468e+07 -785151 5.86533e-06 -114152 4.90014e-08 -1.11483e+07)
(-3.65374e+07 -785309 -1.77206e-05 -112515 -1.44983e-07 -1.0995e+07)
(-3.60251e+07 -786890 0 -109761 0 -1.08405e+07)
(-3.55197e+07 -786747 -5.98818e-06 -109049 -4.69828e-08 -1.06886e+07)
(-3.50032e+07 -793968 0 -103890 0 -1.05321e+07)
(-3.45012e+07 -791141 1.21343e-05 -120337 9.11814e-08 -1.03864e+07)
(-3.39755e+07 -796438 -1.83166e-05 -101880 -1.34843e-07 -1.02232e+07)
(-3.33612e+07 -832349 -6.1434e-06 -54413.6 -4.42769e-08 -1.00247e+07)
(-3.29013e+07 -770713 -1.23635e-05 -119465 -8.6924e-08 -9.90624e+06)
(-3.2441e+07 -785925 -6.2184e-06 -120856 -4.28445e-08 -9.76857e+06)
(-3.19181e+07 -771853 1.25095e-05 -100552 8.44217e-08 -9.60559e+06)
(-3.14078e+07 -775199 -1.25809e-05 -100403 -8.30629e-08 -9.45246e+06)
(-3.09072e+07 -776340 -6.32563e-06 -101858 -4.086e-08 -9.30271e+06)
(-3.02746e+07 -763857 -6.36038e-06 -98991.2 -4.00262e-08 -9.11208e+06)
(-2.99288e+07 -777542 0 -79775.5 0 -9.00258e+06)
(-2.83483e+07 -949565 2.32227e-05 -212129 5.28533e-06 -8.56813e+06)
(-2.88977e+07 -762183 -1.29215e-05 -79039.4 -7.65076e-08 -8.69303e+06)
(-2.82247e+07 -763740 0 -91165.9 0 -8.49475e+06)
(-2.78292e+07 -779061 -6.52468e-06 -91372.8 -3.67918e-08 -8.37616e+06)
(-2.73111e+07 -791759 -1.96672e-05 -93257.6 -1.08287e-07 -8.22131e+06)
(-2.67958e+07 -779128 1.31727e-05 -96934.1 7.07958e-08 -8.06783e+06)
(-2.62583e+07 -852830 -1.98468e-05 -83983 -1.04166e-07 -7.90269e+06)
(-2.59088e+07 -758713 -6.6461e-06 -43861.4 -3.43811e-08 -7.7858e+06)
(-2.53893e+07 -704580 -6.67556e-06 -67170.5 -3.36165e-08 -7.63694e+06)
(-2.47551e+07 -767651 0 -76344.7 0 -7.44942e+06)
(-2.42628e+07 -766533 6.73071e-06 -70466.8 3.21055e-08 -7.29998e+06)
(-2.37354e+07 -778787 -6.75771e-06 -70884.6 -3.14015e-08 -7.14188e+06)
(-2.32305e+07 -780655 0 -70423.1 0 -6.99029e+06)