/*--------------------------------*- C++ -*----------------------------------*\
| =========                 |                                                 |
| \\      /  F ield         | foam-extend: Open Source CFD                    |
|  \\    /   O peration     | Version:     4.0                                |
|   \\  /    A nd           | Web:         http://www.foam-extend.org         |
|    \\/     M anipulation  |                                                 |
\*---------------------------------------------------------------------------*/
FoamFile
{
    version     2.0;
    format      ascii;
    class       volSymmTensorField;
    location    "1";
    object      sigma;
}
// * * * * * * * * * * * * * * * * * * * * * * * * * * * * * * * * * * * * * //

dimensions      [1 -1 -2 0 0 0 0];

internalField   nonuniform List<symmTensor> 
2560
(
(-1.15471e+08 -6.90986e+06 5.6071e-08 -5.73992e+06 -4.89827e-08 -3.63634e+07)
(-1.0672e+08 -750975 -3.30596e-07 -738917 -1.39883e-07 -3.22378e+07)
(-1.08654e+08 104520 -1.85234e-07 -874257 -1.01014e-07 -3.28584e+07)
(-1.07834e+08 4133.31 2.29784e-06 -811309 6.7873e-07 -3.25934e+07)
(-1.08063e+08 -40783.9 -1.31869e-06 -876613 -7.56259e-08 -3.2682e+07)
(-1.07513e+08 -110944 -1.66912e-06 -884134 -6.42996e-07 -3.25191e+07)
(-1.07029e+08 -140046 1.17993e-06 -891552 1.3982e-07 -3.23762e+07)
(-1.0637e+08 -157464 -1.35606e-06 -888763 -1.38951e-07 -3.21776e+07)
(-1.05713e+08 -164481 1.53125e-06 -885192 1.38087e-07 -3.19796e+07)
(-1.05021e+08 -167760 -1.70533e-06 -879716 -1.37181e-07 -3.17702e+07)
(-1.04331e+08 -168891 1.07036e-06 -874270 -1.03951e-06 -3.15616e+07)
(-1.03632e+08 -169227 3.07507e-06 -868333 2.0305e-07 -3.13502e+07)
(-1.02941e+08 -169132 3.0178e-06 -862980 1.52426e-06 -3.11411e+07)
(-1.02238e+08 -169179 -2.07348e-06 -856431 4.64746e-07 -3.09282e+07)
(-1.01555e+08 -169190 9.64664e-07 -853691 -5.74041e-07 -3.07227e+07)
(-1.00835e+08 -174018 3.12337e-07 -841583 6.82185e-07 -3.05029e+07)
(-1.00128e+08 -175999 -5.16241e-06 -859394 1.18577e-06 -3.02963e+07)
(-9.94171e+07 -184122 -3.67081e-06 -799746 -1.65902e-06 -3.00651e+07)
(-9.84697e+07 -252381 -3.21815e-06 -731246 -1.28915e-07 -2.97603e+07)
(-9.78531e+07 -153804 -1.38887e-06 -859259 7.82795e-07 -2.96137e+07)
(-9.72764e+07 -172590 -9.03826e-07 -840951 -2.66029e-06 -2.94352e+07)
(-9.65588e+07 -162127 6.36067e-06 -809335 -2.99104e-06 -2.92104e+07)
(-9.59233e+07 -166946 1.38167e-05 -806391 1.40494e-06 -2.90189e+07)
(-9.52124e+07 -168636 6.76815e-06 -797598 2.70129e-06 -2.8803e+07)
(-9.45282e+07 -169336 2.92797e-07 -792394 1.04508e-06 -2.85962e+07)
(-9.38264e+07 -169771 -2.90624e-07 -786167 -1.08398e-06 -2.83838e+07)
(-9.3131e+07 -169875 1.02087e-05 -780444 -3.62493e-06 -2.81734e+07)
(-9.2432e+07 -169942 1.65284e-05 -774526 1.58348e-06 -2.79619e+07)
(-9.17344e+07 -169959 5.21894e-06 -768705 1.91823e-06 -2.77509e+07)
(-9.1036e+07 -169969 9.88739e-06 -762841 2.37826e-07 -2.75396e+07)
(-9.0338e+07 -169970 7.92008e-06 -757000 1.45114e-06 -2.73285e+07)
(-8.96398e+07 -169967 4.96451e-06 -751142 -1.19421e-06 -2.71173e+07)
(-8.89418e+07 -169952 5.38968e-06 -745292 1.16178e-07 -2.69061e+07)
(-8.82439e+07 -169927 8.30405e-06 -739434 1.72899e-07 -2.6695e+07)
(-8.75463e+07 -169872 1.16336e-05 -733607 1.64977e-06 -2.6484e+07)
(-8.68487e+07 -169828 9.27594e-06 -727744 3.08432e-06 -2.62729e+07)
(-8.61519e+07 -169724 -6.6713e-07 -721966 -3.732e-06 -2.60622e+07)
(-8.54547e+07 -169786 2.79027e-06 -716034 -1.47243e-06 -2.58512e+07)
(-8.47584e+07 -169752 9.50706e-06 -710368 9.47763e-07 -2.56406e+07)
(-8.40603e+07 -170489 5.73905e-06 -704156 -3.88583e-06 -2.54293e+07)
(-8.33597e+07 -171012 2.27199e-05 -698646 -4.35315e-07 -2.52175e+07)
(-8.26567e+07 -172775 9.99809e-06 -691939 1.61955e-07 -2.50046e+07)
(-8.19423e+07 -173758 2.41853e-05 -686337 2.92628e-06 -2.47886e+07)
(-8.12357e+07 -169084 7.31333e-06 -681162 2.7082e-06 -2.45751e+07)
(-8.0553e+07 -166448 -6.23778e-07 -673750 -4.42024e-06 -2.4368e+07)
(-7.98642e+07 -169503 2.88078e-05 -669087 4.17283e-07 -2.416e+07)
(-7.91631e+07 -170648 1.83334e-05 -663351 2.58511e-07 -2.39479e+07)
(-7.84626e+07 -171113 2.63655e-05 -657503 2.22537e-06 -2.3736e+07)
(-7.77594e+07 -171222 3.61285e-07 -651733 2.84838e-06 -2.35233e+07)
(-7.70577e+07 -170892 -5.96708e-07 -645740 -4.82722e-06 -2.3311e+07)
(-7.6357e+07 -170677 2.74653e-05 -639895 3.49086e-07 -2.30991e+07)
(-7.56572e+07 -170428 7.97279e-06 -633977 9.8825e-08 -2.28874e+07)
(-7.49583e+07 -170291 2.85724e-05 -628130 2.36775e-06 -2.26759e+07)
(-7.42598e+07 -170189 1.26757e-05 -622261 3.2293e-06 -2.24646e+07)
(-7.35617e+07 -170144 -5.69636e-07 -616410 -5.21599e-06 -2.22534e+07)
(-7.28637e+07 -170118 2.98479e-05 -610559 2.44975e-06 -2.20423e+07)
(-7.21659e+07 -170110 -1.90245e-20 -604715 -1.43417e-19 -2.18312e+07)
(-7.1468e+07 -170109 3.04567e-05 -598870 3.26735e-07 -2.16201e+07)
(-7.07702e+07 -170112 -2.89657e-20 -593026 -2.45312e-19 -2.1409e+07)
(-7.00724e+07 -170115 1.34036e-05 -587175 1.37295e-07 -2.11979e+07)
(-6.93745e+07 -170116 3.22327e-07 -581328 3.39524e-06 -2.09868e+07)
(-6.86767e+07 -170119 -2.12723e-07 -575477 -2.292e-06 -2.07757e+07)
(-6.79789e+07 -170126 4.21124e-07 -569633 4.64044e-06 -2.05646e+07)
(-6.72811e+07 -170136 -9.38957e-06 -563787 -8.78839e-08 -2.03535e+07)
(-6.65833e+07 -170144 -4.12479e-07 -557953 -4.75159e-06 -2.01424e+07)
(-6.58854e+07 -170146 9.81364e-06 -552106 2.48921e-06 -1.99313e+07)
(-6.51878e+07 -170147 9.41495e-06 -546268 -3.56017e-06 -1.97202e+07)
(-6.44896e+07 -170149 3.94995e-05 -540398 2.79394e-06 -1.9509e+07)
(-6.37923e+07 -170184 2.96391e-07 -534588 3.72523e-06 -1.92981e+07)
(-6.30927e+07 -170252 -3.90854e-07 -528659 -5.01937e-06 -1.90864e+07)
(-6.2397e+07 -170528 1.01394e-05 -523044 8.15036e-08 -1.8876e+07)
(-6.16903e+07 -170988 2.03882e-05 -516789 -1.11945e-06 -1.86621e+07)
(-6.09999e+07 -172045 1.58927e-05 -512739 5.29264e-06 -1.84538e+07)
(-6.02632e+07 -175036 -1.04434e-05 -505062 -7.87168e-08 -1.82305e+07)
(-5.95766e+07 -168740 4.62527e-06 -514975 -9.18811e-06 -1.80275e+07)
(-5.88035e+07 -180063 3.76928e-05 -516170 6.92015e-06 -1.77959e+07)
(-5.80556e+07 -120239 -1.07379e-05 -431070 -7.60056e-08 -1.7546e+07)
(-5.75102e+07 -160853 2.69051e-05 -461906 -2.52109e-06 -1.73916e+07)
(-5.6824e+07 -164633 2.63989e-07 -489111 4.09872e-06 -1.71939e+07)
(-5.61419e+07 -165103 -1.1194e-05 -468644 -2.8291e-06 -1.69832e+07)
(-5.54631e+07 -171197 -8.58965e-08 -466115 -1.38944e-06 -1.67788e+07)
(-5.4745e+07 -173019 1.64662e-05 -459427 -5.49605e-06 -1.65613e+07)
(-5.40431e+07 -170931 3.38802e-05 -453186 2.11774e-07 -1.63489e+07)
(-5.33436e+07 -169986 1.74036e-05 -446959 5.79706e-06 -1.61372e+07)
(-5.26477e+07 -169564 8.15371e-08 -441169 1.43408e-06 -1.59267e+07)
(-5.19523e+07 -169411 -8.04603e-08 -435211 -1.44487e-06 -1.57163e+07)
(-5.12571e+07 -169590 1.71443e-05 -429479 -5.72169e-06 -1.5506e+07)
(-5.05612e+07 -169672 3.5176e-05 -423634 1.98132e-07 -1.52954e+07)
(-4.9865e+07 -169778 1.80213e-05 -417836 6.00335e-06 -1.50848e+07)
(-4.91686e+07 -169749 2.28447e-07 -412028 4.45991e-06 -1.48742e+07)
(-4.84723e+07 -169726 -1.20458e-05 -406174 -1.56003e-06 -1.46635e+07)
(-4.77763e+07 -169570 1.76314e-05 -400434 -8.94633e-06 -1.4453e+07)
(-4.70809e+07 -169571 3.64587e-05 -394516 1.70094e-06 -1.42426e+07)
(-4.6385e+07 -169547 1.24213e-05 -388798 4.6389e-06 -1.40321e+07)
(-4.56903e+07 -169740 6.07017e-06 -382835 -1.50577e-06 -1.38219e+07)
(-4.49918e+07 -170483 1.85352e-05 -376864 8.81545e-08 -1.36106e+07)
(-4.42935e+07 -169442 1.87144e-05 -371719 1.64097e-06 -1.33996e+07)
(-4.36017e+07 -168955 1.25031e-05 -365045 5.69544e-08 -1.319e+07)
(-4.29067e+07 -169974 1.88619e-05 -359578 8.40681e-08 -1.29799e+07)
(-4.22086e+07 -169894 6.53697e-08 -353758 1.58099e-06 -1.27687e+07)
(-4.15126e+07 -169829 -9.03386e-21 -347778 -3.8529e-23 -1.25581e+07)
(-4.08154e+07 -169935 1.27188e-05 -342060 -1.54482e-06 -1.23472e+07)
(-4.01185e+07 -169896 3.20601e-05 -336106 -1.47548e-06 -1.21364e+07)
(-3.94215e+07 -170018 1.93719e-05 -330342 7.72396e-08 -1.19255e+07)
(-3.8724e+07 -170051 6.54954e-06 -324471 1.64806e-06 -1.17145e+07)
(-3.80265e+07 -170124 5.88928e-08 -318658 1.63069e-06 -1.15035e+07)
(-3.73286e+07 -170151 1.29313e-05 -312807 -4.86667e-06 -1.12924e+07)
(-3.66307e+07 -170180 3.29147e-05 -306962 1.19619e-07 -1.10813e+07)
(-3.59327e+07 -170197 1.33371e-05 -301101 3.35414e-06 -1.08701e+07)
(-3.52347e+07 -170213 1.97632e-05 -295247 -4.91382e-06 -1.0659e+07)
(-3.45368e+07 -170226 2.00133e-05 -289390 6.7669e-08 -1.04478e+07)
(-3.38389e+07 -170234 1.99408e-05 -283549 -4.95935e-06 -1.02367e+07)
(-3.31409e+07 -170245 6.73214e-05 -277709 1.89858e-06 -1.00256e+07)
(-3.24429e+07 -170245 1.37594e-05 -271872 8.48689e-06 -9.81443e+06)
(-3.17449e+07 -170248 2.03418e-05 -266007 6.21987e-08 -9.60326e+06)
(-3.10468e+07 -170258 1.36131e-05 -260159 4.0554e-08 -9.39209e+06)
(-3.03489e+07 -170268 2.03077e-05 -254306 -6.77395e-06 -9.18095e+06)
(-2.96509e+07 -170292 4.12778e-05 -248441 5.25984e-06 -8.96981e+06)
(-2.89529e+07 -170309 1.39411e-05 -242608 6.92021e-06 -8.75866e+06)
(-2.82549e+07 -170327 -8.75186e-08 -236764 -3.45301e-06 -8.54751e+06)
(-2.75569e+07 -170346 1.38551e-05 -230922 3.59954e-08 -8.33634e+06)
(-2.68589e+07 -170358 8.31943e-08 -225064 3.47577e-06 -8.12518e+06)
(-2.61609e+07 -170371 -3.12074e-21 -219204 -1.23874e-19 -7.91404e+06)
(-2.5463e+07 -170396 1.39076e-05 -213348 -3.46412e-06 -7.7029e+06)
(-2.47651e+07 -170417 -1.15063e-07 -207526 -5.26163e-06 -7.49178e+06)
(-2.40672e+07 -170436 2.10652e-05 -201676 -1.71176e-06 -7.28066e+06)
(-2.33693e+07 -170456 2.13422e-05 -195831 8.86488e-06 -7.06953e+06)
(-2.26713e+07 -170451 -7.02235e-08 -189998 -3.53714e-06 -6.8584e+06)
(-2.19734e+07 -170441 4.95704e-05 -184132 -3.4459e-06 -6.64726e+06)
(-2.12755e+07 -170425 1.4317e-05 -178264 5.36073e-06 -6.43612e+06)
(-2.05776e+07 -170418 6.37383e-08 -172402 3.56393e-06 -6.225e+06)
(-1.98797e+07 -170412 -9.2365e-08 -166577 -5.35843e-06 -6.01389e+06)
(-1.91818e+07 -170417 3.57365e-05 -160735 -3.51772e-06 -5.80277e+06)
(-1.84839e+07 -170435 1.44067e-05 -154895 3.61228e-06 -5.59163e+06)
(-1.7786e+07 -170445 -7.13464e-06 -149044 3.58401e-06 -5.38051e+06)
(-1.70882e+07 -170461 -1.43818e-05 -143187 1.77909e-06 -5.16941e+06)
(-1.63902e+07 -170469 -2.03072e-07 -137363 -1.4439e-05 -4.95828e+06)
(-1.56923e+07 -170449 7.22878e-05 -131530 -1.70569e-06 -4.74716e+06)
(-1.49944e+07 -170432 2.18478e-05 -125642 9.08613e-06 -4.53602e+06)
(-1.42965e+07 -170438 2.17901e-05 -119768 1.84239e-06 -4.32488e+06)
(-1.35987e+07 -170441 1.45561e-05 -113945 1.83502e-06 -4.11379e+06)
(-1.29008e+07 -170460 1.45569e-05 -108100 1.68513e-08 -3.90268e+06)
(-1.2203e+07 -170458 2.91552e-05 -102268 3.18796e-08 -3.69158e+06)
(-1.15052e+07 -170451 1.45794e-05 -96378.9 -1.81e-06 -3.48048e+06)
(-1.08074e+07 -170463 7.2576e-06 -90553.3 -5.47494e-06 -3.26939e+06)
(-1.01096e+07 -170459 5.12152e-05 -84744.3 4.62185e-08 -3.0583e+06)
(-9.41189e+06 -170438 3.66517e-05 -78895.2 3.69375e-06 -2.84724e+06)
(-8.71414e+06 -170414 2.20095e-05 -73003.4 1.85045e-06 -2.63614e+06)
(-8.01665e+06 -170332 1.46902e-05 -67169.6 1.84558e-06 -2.42515e+06)
(-7.31935e+06 -170272 -3.34424e-20 -61373.5 -6.26423e-18 -2.21422e+06)
(-6.62249e+06 -170062 -3.07693e-08 -55544.9 -5.51439e-06 -2.00341e+06)
(-5.92675e+06 -170016 5.15117e-05 -49779.6 3.70595e-06 -1.79296e+06)
(-5.23039e+06 -169907 2.20824e-05 -43631.4 1.02491e-08 -1.58221e+06)
(-4.53666e+06 -168044 2.20804e-05 -38208.2 -3.67428e-06 -1.37246e+06)
(-3.85349e+06 -164741 1.47545e-05 -33545.6 5.53235e-06 -1.16611e+06)
(-3.18175e+06 -158578 -9.0752e-21 -29647.3 5.23856e-19 -963421)
(-2.54591e+06 -148435 -2.36271e-08 -28972.4 -1.10626e-05 -772465)
(-1.93343e+06 -128555 7.37605e-05 -30781 1.24006e-08 -589262)
(-1.44556e+06 -149521 1.11327e-08 -30486.6 9.22506e-06 -442813)
(-639659 -361598 -3.68931e-06 218382 9.23365e-06 -126383)
(-9.61407e+07 -8.76508e+06 2.86587e-07 -9.21639e+06 1.5815e-07 -3.16071e+07)
(-9.52696e+07 -1.46858e+06 -2.66515e-07 -1.16324e+06 -8.87792e-09 -2.89299e+07)
(-9.47668e+07 -124208 4.12109e-08 130058 -1.10859e-07 -2.8391e+07)
(-9.37365e+07 -165214 2.9211e-07 539359 3.26078e-07 -2.79591e+07)
(-9.3422e+07 -229882 3.19914e-06 525273 1.79141e-06 -2.7869e+07)
(-9.27814e+07 -376157 1.70902e-06 515993 -2.01923e-09 -2.76796e+07)
(-9.22762e+07 -439049 -3.17991e-21 488084 -5.38706e-21 -2.75364e+07)
(-9.16757e+07 -480876 -1.35117e-06 475434 -2.47229e-07 -2.73601e+07)
(-9.10977e+07 -497588 1.75926e-22 465088 3.23396e-21 -2.71898e+07)
(-9.04965e+07 -506097 1.70021e-06 459559 2.43988e-07 -2.70111e+07)
(-8.99009e+07 -508970 -4.32835e-21 454827 -1.45437e-20 -2.68338e+07)
(-8.92984e+07 -509948 -9.202e-06 451529 -1.08336e-06 -2.66541e+07)
(-8.87025e+07 -509641 6.96961e-21 447961 2.95947e-20 -2.64764e+07)
(-8.80971e+07 -510623 2.24776e-06 446361 -3.61002e-07 -2.62952e+07)
(-8.75117e+07 -508314 6.38329e-06 445256 5.89866e-07 -2.61199e+07)
(-8.69016e+07 -533411 3.12634e-06 448986 2.28162e-06 -2.59358e+07)
(-8.63285e+07 -499808 8.39019e-06 470164 -7.48791e-07 -2.57575e+07)
(-8.58123e+07 -659422 6.36159e-06 407514 1.9918e-06 -2.56214e+07)
(-8.47732e+07 -429652 -1.3197e-07 308725 -8.0596e-07 -2.53394e+07)
(-8.41462e+07 -327488 6.23944e-06 418244 -2.93405e-06 -2.51184e+07)
(-8.38645e+07 -479866 8.97879e-06 452614 1.45263e-06 -2.50236e+07)
(-8.32063e+07 -475018 0 429506 0 -2.4833e+07)
(-8.2661e+07 -500801 -3.98644e-06 422471 -1.18952e-06 -2.46715e+07)
(-8.20444e+07 -506967 6.27878e-06 417021 2.34403e-06 -2.44882e+07)
(-8.14541e+07 -509733 4.29904e-06 412123 1.2649e-06 -2.43126e+07)
(-8.08489e+07 -511127 3.94992e-06 408965 -3.03464e-06 -2.4132e+07)
(-8.02497e+07 -511430 2.24108e-06 405504 1.08175e-07 -2.39533e+07)
(-7.96473e+07 -511651 -6.82908e-06 402495 8.39042e-07 -2.37734e+07)
(-7.90463e+07 -511686 7.18133e-06 399364 3.19657e-07 -2.35941e+07)
(-7.84445e+07 -511716 -5.06071e-06 396341 -1.44838e-06 -2.34144e+07)
(-7.78431e+07 -511708 -5.08834e-06 393277 -2.09861e-07 -2.32349e+07)
(-7.72415e+07 -511681 8.21645e-06 390241 4.24692e-06 -2.30554e+07)
(-7.66401e+07 -511614 -5.50389e-06 387189 -1.55502e-06 -2.28759e+07)
(-7.60386e+07 -511519 5.29397e-06 384160 -2.56498e-06 -2.26963e+07)
(-7.54375e+07 -511340 2.60302e-06 381067 -2.74089e-06 -2.25169e+07)
(-7.48363e+07 -511186 1.79589e-19 378077 1.67801e-18 -2.23375e+07)
(-7.42359e+07 -510874 1.5717e-05 374931 1.09515e-05 -2.21583e+07)
(-7.36348e+07 -511009 -1.53766e-05 372259 -2.02475e-06 -2.19788e+07)
(-7.30351e+07 -510867 9.14051e-06 369009 -2.83187e-06 -2.17998e+07)
(-7.24335e+07 -512845 1.12829e-07 367347 1.59848e-06 -2.16199e+07)
(-7.18319e+07 -514051 -6.52308e-06 363326 -1.93657e-07 -2.14406e+07)
(-7.12278e+07 -518924 -9.99023e-06 362517 -2.88064e-07 -2.12596e+07)
(-7.06161e+07 -521272 -2.40062e-05 355201 -4.06894e-06 -2.10783e+07)
(-7.00093e+07 -509328 -6.49456e-06 345622 6.7511e-06 -2.08991e+07)
(-6.94146e+07 -502734 -7.17246e-06 352844 -1.95547e-06 -2.07185e+07)
(-6.88183e+07 -510814 -1.13312e-05 349697 -9.28565e-06 -2.05406e+07)
(-6.82125e+07 -513648 1.06254e-07 345339 1.83432e-06 -2.03602e+07)
(-6.76086e+07 -514737 -1.833e-05 342193 5.14495e-06 -2.01799e+07)
(-6.70033e+07 -514975 8.0049e-06 338215 7.7772e-06 -1.99995e+07)
(-6.6399e+07 -514030 -2.06856e-07 335316 -3.86222e-06 -1.98191e+07)
(-6.57957e+07 -513425 -1.1968e-05 332105 -4.19165e-06 -1.96391e+07)
(-6.51928e+07 -512725 -7.96761e-06 329216 -1.75755e-07 -1.94591e+07)
(-6.45907e+07 -512328 -2.05319e-05 326190 -6.51117e-06 -1.92793e+07)
(-6.39888e+07 -512026 3.98696e-07 323229 8.22437e-06 -1.90997e+07)
(-6.33872e+07 -511872 -8.23864e-06 320225 1.91573e-06 -1.89201e+07)
(-6.27858e+07 -511775 -1.28831e-05 317218 -4.48761e-06 -1.87406e+07)
(-6.21844e+07 -511734 -9.29787e-21 314185 -1.53349e-19 -1.85611e+07)
(-6.15831e+07 -511720 -1.30451e-05 311149 -2.49037e-07 -1.83816e+07)
(-6.09817e+07 -511717 -1.72485e-05 308103 8.49453e-06 -1.82021e+07)
(-6.03804e+07 -511720 -8.93058e-06 305072 -1.62782e-07 -1.80226e+07)
(-5.97791e+07 -511715 1.35686e-05 302033 2.41742e-07 -1.78431e+07)
(-5.91778e+07 -511713 -8.97543e-06 298998 4.4249e-06 -1.76636e+07)
(-5.85765e+07 -511718 4.45385e-06 295949 -4.56192e-06 -1.74842e+07)
(-5.79752e+07 -511733 1.87688e-05 292909 3.12596e-07 -1.73047e+07)
(-5.7374e+07 -511751 -1.89899e-05 289856 -3.09354e-07 -1.71252e+07)
(-5.67726e+07 -511758 -3.53733e-07 286826 -9.61348e-06 -1.69457e+07)
(-5.61714e+07 -511773 -2.62491e-07 283781 -7.29131e-06 -1.67663e+07)
(-5.55697e+07 -511790 -2.45494e-05 280806 -3.74533e-07 -1.65867e+07)
(-5.49689e+07 -511935 1.03538e-05 277755 1.25667e-05 -1.64073e+07)
(-5.4366e+07 -512162 -9.86117e-06 274983 4.87325e-06 -1.62273e+07)
(-5.37668e+07 -513068 4.73209e-06 272016 -1.00708e-05 -1.60484e+07)
(-5.31583e+07 -514860 -2.04733e-05 270141 -2.86643e-07 -1.58665e+07)
(-5.25659e+07 -518687 1.63765e-07 268531 5.17358e-06 -1.56892e+07)
(-5.19298e+07 -534571 1.05997e-05 268005 5.36375e-06 -1.54985e+07)
(-5.13622e+07 -531527 -1.59651e-05 276956 -5.48094e-06 -1.53256e+07)
(-5.05667e+07 -624587 -3.73702e-05 251122 -5.79868e-06 -1.50947e+07)
(-4.99784e+07 -560232 1.08864e-05 180670 5.50468e-06 -1.49393e+07)
(-4.96418e+07 -419984 -1.62445e-05 235225 -2.00602e-07 -1.4822e+07)
(-4.89916e+07 -514065 -1.06164e-05 266346 1.07986e-05 -1.46176e+07)
(-4.83796e+07 -492149 1.50729e-07 251503 5.51195e-06 -1.44384e+07)
(-4.7787e+07 -515528 -1.1405e-05 248814 -1.12453e-05 -1.42615e+07)
(-4.7171e+07 -518697 -1.69444e-05 237626 -5.79451e-06 -1.408e+07)
(-4.65681e+07 -513683 -2.25764e-05 233716 -2.51071e-07 -1.39003e+07)
(-4.59664e+07 -511253 -5.54525e-06 231787 5.63103e-06 -1.37204e+07)
(-4.53671e+07 -510193 -1.13231e-05 228692 5.61444e-06 -1.35415e+07)
(-4.47675e+07 -509771 -1.16903e-05 226386 -5.90063e-06 -1.33623e+07)
(-4.41682e+07 -510226 -5.95563e-06 223224 -5.8821e-06 -1.31835e+07)
(-4.35681e+07 -510430 -2.34403e-05 220283 -2.34917e-07 -1.30044e+07)
(-4.29681e+07 -510711 -5.76769e-06 217142 5.84817e-06 -1.28253e+07)
(-4.23678e+07 -510633 -1.17529e-05 213994 5.83277e-06 -1.26461e+07)
(-4.17676e+07 -510581 1.18354e-05 210996 -5.87471e-06 -1.2467e+07)
(-4.11678e+07 -510140 -6.15079e-06 207763 -6.08256e-06 -1.2288e+07)
(-4.05683e+07 -510144 -2.42469e-05 205120 -2.18742e-07 -1.21089e+07)
(-3.99686e+07 -510006 1.24516e-07 201887 6.10485e-06 -1.193e+07)
(-3.937e+07 -510509 -1.84151e-05 199527 -1.59215e-07 -1.17512e+07)
(-3.87685e+07 -512530 -1.86482e-05 196492 -6.33714e-06 -1.15716e+07)
(-3.8168e+07 -509557 -6.21268e-06 190861 -5.14433e-08 -1.13931e+07)
(-3.7571e+07 -508283 -1.44136e-20 191054 -8.88657e-19 -1.1214e+07)
(-3.69722e+07 -511157 -6.16952e-06 187120 6.23941e-06 -1.10355e+07)
(-3.63708e+07 -510990 -1.25264e-05 183406 6.22634e-06 -1.08562e+07)
(-3.57709e+07 -510843 -1.11439e-07 181001 -6.35897e-06 -1.0677e+07)
(-3.51703e+07 -511190 -2.19136e-07 177515 -1.27859e-05 -1.04978e+07)
(-3.45696e+07 -511071 -6.42186e-06 174869 -4.65996e-08 -1.03184e+07)
(-3.3969e+07 -511396 -6.24305e-06 171629 1.28727e-05 -1.01392e+07)
(-3.33679e+07 -511478 -1.9357e-05 168689 6.35658e-06 -9.95976e+06)
(-3.27669e+07 -511680 -1.31394e-05 165567 -6.61156e-06 -9.78039e+06)
(-3.21655e+07 -511772 -1.00207e-07 162541 -6.55434e-06 -9.60089e+06)
(-3.15642e+07 -511861 -1.31607e-05 159482 -8.50954e-08 -9.42141e+06)
(-3.09627e+07 -511889 -2.34845e-21 156467 -1.4828e-23 -9.24187e+06)
(-3.03613e+07 -511890 -6.54512e-06 153428 6.60333e-06 -9.06236e+06)
(-2.97599e+07 -511883 -2.00056e-05 150387 -1.20347e-07 -8.88285e+06)
(-2.91585e+07 -511895 -2.0272e-05 147322 -1.35205e-05 -8.70335e+06)
(-2.8557e+07 -511929 -5.37954e-05 144271 -3.07953e-07 -8.52383e+06)
(-2.79556e+07 -511948 8.70915e-08 141210 6.75606e-06 -8.34431e+06)
(-2.73541e+07 -511964 3.63305e-20 138206 2.89158e-18 -8.16477e+06)
(-2.67526e+07 -511956 -1.36079e-05 135191 -7.21239e-08 -7.98523e+06)
(-2.61512e+07 -511939 -2.04879e-05 132140 -1.05754e-07 -7.80572e+06)
(-2.55498e+07 -511973 -4.12041e-05 129121 -7.06528e-06 -7.6262e+06)
(-2.49483e+07 -511997 7.77229e-08 126045 6.88284e-06 -7.44669e+06)
(-2.43469e+07 -512029 7.58492e-08 123001 6.90647e-06 -7.26716e+06)
(-2.37454e+07 -512049 -1.38499e-05 119973 -6.40164e-08 -7.08763e+06)
(-2.3144e+07 -512040 4.99246e-20 116941 1.48206e-18 -6.9081e+06)
(-2.25425e+07 -512047 -7.02281e-08 113921 -6.97389e-06 -6.72859e+06)
(-2.19411e+07 -512067 -1.3913e-05 110909 6.93606e-06 -6.54907e+06)
(-2.13397e+07 -512067 7.07789e-06 107824 7.04472e-06 -6.36957e+06)
(-2.07384e+07 -512087 -2.11593e-05 104760 -7.11998e-06 -6.19008e+06)
(-2.0137e+07 -512118 -7.1139e-06 101734 -7.08286e-06 -6.01057e+06)
(-1.95356e+07 -512109 1.40795e-05 98682.4 -7.02206e-06 -5.83107e+06)
(-1.89342e+07 -512098 -3.54431e-05 95670 -1.27614e-07 -5.65155e+06)
(-1.83328e+07 -512064 -1.40987e-05 92637.6 1.41726e-05 -5.47205e+06)
(-1.77314e+07 -512053 3.49658e-20 89607.2 1.89943e-18 -5.29255e+06)
(-1.71301e+07 -512049 -5.33662e-08 86545.2 -7.14502e-06 -5.11306e+06)
(-1.65287e+07 -512074 -3.5783e-05 83514.2 -1.11401e-07 -4.93356e+06)
(-1.59273e+07 -512101 9.92385e-08 80481 1.43534e-05 -4.75405e+06)
(-1.5326e+07 -512083 -7.13939e-06 77419.4 7.17103e-06 -4.57457e+06)
(-1.47247e+07 -512109 1.43572e-05 74402 -7.1664e-06 -4.39508e+06)
(-1.41232e+07 -512111 7.12737e-06 71351.5 -1.44208e-05 -4.21557e+06)
(-1.35219e+07 -512083 -3.61852e-05 68273 -7.3243e-06 -4.03607e+06)
(-1.29205e+07 -512087 -2.16836e-05 65286.7 7.19359e-06 -3.85656e+06)
(-1.23191e+07 -512078 -7.25339e-06 62305.4 -1.66061e-08 -3.67705e+06)
(-1.17178e+07 -512053 -1.45298e-05 59220.1 -3.15907e-08 -3.49758e+06)
(-1.11165e+07 -512078 -1.45863e-05 56196 -7.31037e-06 -3.31809e+06)
(-1.05152e+07 -512054 7.28622e-06 53109.1 1.41741e-08 -3.13862e+06)
(-9.91389e+06 -512049 -1.45303e-05 50102.4 1.45744e-05 -2.95914e+06)
(-9.31262e+06 -512071 1.45814e-05 47049.9 -7.28467e-06 -2.77967e+06)
(-8.71131e+06 -512046 -2.19959e-05 43943.4 -1.46721e-05 -2.60021e+06)
(-8.11009e+06 -511996 -2.19405e-05 40944 7.29368e-06 -2.42074e+06)
(-7.5088e+06 -511934 2.33926e-08 37942 7.33397e-06 -2.24126e+06)
(-6.90775e+06 -511747 -1.46511e-05 34807.4 7.32225e-06 -2.06188e+06)
(-6.30666e+06 -511577 -1.46657e-05 31761.3 7.33021e-06 -1.88247e+06)
(-5.70614e+06 -511007 -3.55526e-08 28537.9 -1.47059e-05 -1.70328e+06)
(-5.10607e+06 -510679 -2.21006e-05 25993.7 -1.8416e-05 -1.52402e+06)
(-4.5059e+06 -510091 1.47445e-05 21940.5 1.47377e-05 -1.34519e+06)
(-3.90812e+06 -505858 -2.20686e-05 15829 1.10344e-05 -1.16769e+06)
(-3.31157e+06 -498989 -1.47315e-05 12651.1 -8.90246e-09 -989677)
(-2.71533e+06 -485471 -1.47291e-05 6598.3 7.3658e-06 -812621)
(-2.12618e+06 -466544 7.35813e-06 -1851.35 -1.47481e-05 -638411)
(-1.52103e+06 -435343 -5.89895e-05 2581.63 -1.62756e-08 -455535)
(-900954 -477040 -1.4743e-05 78092.9 2.21375e-05 -246858)
(-225089 -682881 -1.10699e-05 579635 -2.21598e-05 106364)
(-8.07501e+07 -6.54869e+06 1.06947e-07 -1.27794e+07 1.35709e-07 -2.80589e+07)
(-8.18287e+07 -1.44471e+06 -2.50078e-07 -3.22498e+06 -1.58356e-07 -2.55161e+07)
(-8.12624e+07 -688894 -4.70619e-07 -868608 -2.11126e-07 -2.46393e+07)
(-8.01539e+07 -525686 -2.25043e-06 -106114 -7.45196e-07 -2.4078e+07)
(-7.96001e+07 -547824 9.81298e-07 -110977 -9.72871e-08 -2.39133e+07)
(-7.89146e+07 -659741 -7.498e-07 -132927 2.93885e-07 -2.37143e+07)
(-7.84106e+07 -712343 1.31618e-06 -187191 1.8799e-06 -2.35793e+07)
(-7.78663e+07 -752717 1.34712e-06 -211147 2.06165e-07 -2.34232e+07)
(-7.73612e+07 -769013 -4.8037e-07 -226721 -1.53579e-06 -2.32764e+07)
(-7.68446e+07 -778150 2.54416e-06 -232006 3.04969e-07 -2.3123e+07)
(-7.63369e+07 -781145 3.51448e-06 -234423 3.12724e-06 -2.29714e+07)
(-7.58241e+07 -781993 3.06117e-06 -234039 3.00871e-07 -2.28174e+07)
(-7.53193e+07 -781189 -7.01484e-07 -233740 -3.33793e-06 -2.26659e+07)
(-7.48033e+07 -779441 2.03257e-06 -230819 -1.59819e-06 -2.25102e+07)
(-7.43267e+07 -773770 -1.5054e-06 -228149 -1.37983e-06 -2.23665e+07)
(-7.37819e+07 -772021 4.18932e-06 -220279 9.75397e-07 -2.22007e+07)
(-7.35638e+07 -730011 2.28388e-07 -220878 1.44801e-06 -2.21354e+07)
(-7.26571e+07 -730158 2.25531e-07 -249242 1.53034e-06 -2.18719e+07)
(-7.46886e+07 -1.18632e+06 5.20816e-06 74922 -1.61009e-06 -2.23841e+07)
(-7.16126e+07 -769831 -3.33424e-07 -250800 -2.5405e-06 -2.1559e+07)
(-7.15006e+07 -739286 1.54558e-06 -206199 -1.67952e-06 -2.1512e+07)
(-7.06887e+07 -774576 -3.69455e-06 -198969 -1.87116e-07 -2.12663e+07)
(-7.02159e+07 -774091 -7.8161e-06 -208632 -1.33842e-06 -2.11274e+07)
(-6.96696e+07 -782069 -1.89751e-06 -210414 9.14138e-07 -2.0964e+07)
(-6.91661e+07 -782597 4.49014e-06 -212562 3.31943e-06 -2.08136e+07)
(-6.865e+07 -784157 2.05524e-06 -211394 -9.93581e-07 -2.06584e+07)
(-6.8141e+07 -784287 -2.45056e-06 -210596 -2.33611e-06 -2.05055e+07)
(-6.76293e+07 -784555 6.42723e-22 -209035 2.48275e-23 -2.03515e+07)
(-6.71189e+07 -784578 2.08371e-07 -207612 2.39868e-06 -2.0198e+07)
(-6.66079e+07 -784617 5.16961e-07 -206021 6.18542e-06 -2.00442e+07)
(-6.60973e+07 -784600 -3.07799e-07 -204475 -3.82361e-06 -1.98905e+07)
(-6.55865e+07 -784557 -2.03613e-07 -202899 -2.62341e-06 -1.97368e+07)
(-6.50758e+07 -784456 1.01014e-07 -201359 1.34858e-06 -1.95832e+07)
(-6.45651e+07 -784316 -3.00664e-07 -199792 -4.1555e-06 -1.94295e+07)
(-6.40547e+07 -784056 -5.27423e-06 -198317 5.51643e-06 -1.92759e+07)
(-6.35441e+07 -783828 -1.454e-05 -196698 -4.20231e-07 -1.91222e+07)
(-6.30343e+07 -783348 -2.5582e-20 -195273 -2.85597e-19 -1.89689e+07)
(-6.25237e+07 -783473 6.10065e-06 -193099 1.65396e-07 -1.8815e+07)
(-6.20151e+07 -783045 -3.85053e-07 -191608 -6.25516e-06 -1.8662e+07)
(-6.15044e+07 -785630 6.38068e-06 -187527 1.62715e-07 -1.85076e+07)
(-6.09963e+07 -786658 -1.28486e-05 -187199 2.94374e-06 -1.83551e+07)
(-6.04851e+07 -793930 -6.18654e-06 -181211 8.17759e-06 -1.81999e+07)
(-5.99682e+07 -797983 -1.33976e-05 -189797 3.08582e-06 -1.80474e+07)
(-5.94533e+07 -782732 -7.11116e-06 -197866 -3.62744e-06 -1.78954e+07)
(-5.89435e+07 -772838 -7.42622e-06 -176496 -7.22991e-06 -1.7736e+07)
(-5.84359e+07 -784510 -1.81631e-05 -175523 -3.98983e-06 -1.75834e+07)
(-5.79188e+07 -788249 -1.08062e-05 -177351 3.43917e-06 -1.74289e+07)
(-5.74055e+07 -789061 -2.23627e-05 -176555 -4.55584e-07 -1.72746e+07)
(-5.68919e+07 -789291 -7.7599e-06 -176757 -3.94914e-06 -1.71206e+07)
(-5.6379e+07 -787814 -7.71118e-06 -175012 -1.49136e-07 -1.69662e+07)
(-5.58672e+07 -786971 -1.55024e-05 -173616 3.63038e-06 -1.68123e+07)
(-5.53555e+07 -785977 -7.79163e-06 -171714 3.84229e-06 -1.66582e+07)
(-5.48445e+07 -785425 -2.42637e-05 -170012 -4.35234e-07 -1.65043e+07)
(-5.43335e+07 -784995 -2.05279e-05 -168249 -3.59318e-07 -1.63505e+07)
(-5.38227e+07 -784769 -1.67093e-07 -166574 -4.1736e-06 -1.61968e+07)
(-5.3312e+07 -784624 -8.4542e-06 -164921 -1.41026e-07 -1.60431e+07)
(-5.28014e+07 -784560 -8.57399e-06 -163319 -1.39676e-07 -1.58894e+07)
(-5.22908e+07 -784533 -8.36796e-06 -161729 8.56825e-06 -1.57357e+07)
(-5.17802e+07 -784522 -8.8905e-06 -160163 -2.34299e-06 -1.55821e+07)
(-5.12696e+07 -784520 -5.57083e-07 -158578 -1.56457e-05 -1.54284e+07)
(-5.0759e+07 -784512 2.36372e-07 -156998 6.79168e-06 -1.52748e+07)
(-5.02484e+07 -784508 -9.15567e-06 -155418 -1.32922e-07 -1.51212e+07)
(-4.97379e+07 -784514 -9.42296e-06 -153854 -4.77281e-06 -1.49675e+07)
(-4.92273e+07 -784531 -8.99821e-06 -152285 1.16125e-05 -1.48139e+07)
(-4.87167e+07 -784555 -5.42551e-21 -150714 -2.53223e-19 -1.46602e+07)
(-4.82061e+07 -784567 -9.74992e-06 -149115 -4.93462e-06 -1.45066e+07)
(-4.76956e+07 -784593 -1.9269e-05 -147534 4.6089e-06 -1.43529e+07)
(-4.71847e+07 -784610 -2.45391e-05 -145854 -3.12046e-07 -1.41992e+07)
(-4.66747e+07 -784797 -2.97648e-05 -144262 -3.70408e-07 -1.40457e+07)
(-4.61629e+07 -784944 -2.14971e-07 -142187 -7.53027e-06 -1.38915e+07)
(-4.56555e+07 -785985 -9.98832e-06 -140336 4.95123e-06 -1.37387e+07)
(-4.51402e+07 -786476 -2.04651e-05 -136427 -2.38859e-07 -1.3583e+07)
(-4.46511e+07 -791444 -2.08063e-05 -132849 -5.41024e-06 -1.34352e+07)
(-4.41166e+07 -791509 -1.02285e-05 -124334 7.71926e-06 -1.32723e+07)
(-4.37887e+07 -812719 1.06685e-05 -126502 5.38939e-06 -1.31746e+07)
(-4.30342e+07 -794595 -2.12611e-05 -150553 -2.2746e-07 -1.29554e+07)
(-4.40836e+07 -544271 -2.30798e-06 42842.2 -6.45974e-06 -1.32122e+07)
(-4.20246e+07 -816087 1.30445e-07 -145673 5.41861e-06 -1.26511e+07)
(-4.17547e+07 -811298 -2.18342e-05 -129111 -2.20909e-07 -1.25652e+07)
(-4.10703e+07 -783254 2.18941e-05 -119299 -5.29497e-06 -1.23569e+07)
(-4.0583e+07 -792590 1.26004e-07 -114948 5.55858e-06 -1.22094e+07)
(-4.00508e+07 -795990 1.10698e-05 -127526 -5.49822e-06 -1.20535e+07)
(-3.95409e+07 -786839 1.11613e-05 -126527 -5.54445e-06 -1.19002e+07)
(-3.90311e+07 -783409 1.2117e-07 -122157 5.69335e-06 -1.1746e+07)
(-3.85228e+07 -782269 2.30402e-05 -120119 5.9409e-06 -1.15929e+07)
(-3.80133e+07 -781721 -1.18013e-07 -117151 -5.7803e-06 -1.14391e+07)
(-3.75043e+07 -782433 1.15155e-05 -115704 -5.72371e-06 -1.1286e+07)
(-3.69944e+07 -782699 1.1716e-05 -114044 9.78639e-08 -1.11325e+07)
(-3.64847e+07 -783094 1.13267e-07 -112715 5.90645e-06 -1.09792e+07)
(-3.59748e+07 -782972 2.9702e-05 -111429 2.37908e-07 -1.08259e+07)
(-3.54648e+07 -782901 -1.101e-07 -109876 -5.98768e-06 -1.06724e+07)
(-3.49554e+07 -782229 1.2041e-05 -108652 9.24644e-08 -1.05192e+07)
(-3.4446e+07 -782216 1.21193e-05 -106309 9.11216e-08 -1.03657e+07)
(-3.39369e+07 -781814 1.05357e-07 -105137 6.10521e-06 -1.02126e+07)
(-3.34291e+07 -782440 2.4649e-05 -101893 6.32013e-06 -1.00593e+07)
(-3.29182e+07 -785252 -1.02195e-07 -101238 -6.18072e-06 -9.90583e+06)
(-3.24095e+07 -780999 1.85313e-05 -105112 -6.08901e-06 -9.75439e+06)
(-3.19023e+07 -779492 1.24939e-05 -96188.6 8.44068e-08 -9.59955e+06)
(-3.13941e+07 -783683 9.74643e-08 -96103 6.28961e-06 -9.44705e+06)
(-3.0883e+07 -783461 2.52712e-05 -96109.8 1.63383e-07 -9.29373e+06)
(-3.03735e+07 -783123 1.26105e-05 -93353.1 -6.27898e-06 -9.14005e+06)
(-2.98638e+07 -783737 1.27727e-05 -92597.7 7.89973e-08 -8.98691e+06)
(-2.93535e+07 -783549 6.4198e-06 -90376.2 3.88257e-08 -8.83315e+06)
(-2.88436e+07 -784052 -1.28157e-05 -89129.9 6.38331e-06 -8.67981e+06)
(-2.8333e+07 -784163 2.60276e-05 -87412.7 6.64179e-06 -8.52613e+06)
(-2.78227e+07 -784455 -8.63757e-08 -85982.4 -6.52358e-06 -8.3726e+06)
(-2.7312e+07 -784584 1.29683e-05 -84397.2 -9.75981e-06 -8.21892e+06)