/*--------------------------------*- C++ -*----------------------------------*\
| =========                 |                                                 |
| \\      /  F ield         | foam-extend: Open Source CFD                    |
|  \\    /   O peration     | Version:     4.0                                |
|   \\  /    A nd           | Web:         http://www.foam-extend.org         |
|    \\/     M anipulation  |                                                 |
\*---------------------------------------------------------------------------*/
FoamFile
{
    version     2.0;
    format      ascii;
    class       volScalarField;
    location    "1";
    object      sigmaHyd;
}
// * * * * * * * * * * * * * * * * * * * * * * * * * * * * * * * * * * * * * //

dimensions      [1 -1 -2 0 0 0 0];

internalField   nonuniform List<scalar> 
2560
(
-5.25249e+07
-4.65656e+07
-4.74621e+07
-4.70794e+07
-4.72073e+07
-4.69721e+07
-4.67656e+07
-4.64788e+07
-4.61928e+07
-4.58903e+07
-4.55889e+07
-4.52836e+07
-4.49815e+07
-4.46741e+07
-4.43772e+07
-4.40598e+07
-4.37613e+07
-4.34273e+07
-4.29871e+07
-4.27754e+07
-4.25175e+07
-4.21929e+07
-4.19162e+07
-4.16043e+07
-4.13056e+07
-4.09988e+07
-4.0695e+07
-4.03895e+07
-4.00847e+07
-3.97795e+07
-3.94745e+07
-3.91694e+07
-3.88644e+07
-3.85594e+07
-3.82546e+07
-3.79498e+07
-3.76453e+07
-3.73406e+07
-3.70365e+07
-3.67312e+07
-3.64253e+07
-3.61178e+07
-3.58057e+07
-3.54973e+07
-3.51982e+07
-3.48978e+07
-3.45915e+07
-3.42854e+07
-3.39782e+07
-3.36715e+07
-3.33653e+07
-3.30595e+07
-3.27541e+07
-3.24489e+07
-3.21438e+07
-3.18388e+07
-3.15339e+07
-3.1229e+07
-3.09241e+07
-3.06191e+07
-3.03142e+07
-3.00093e+07
-2.97044e+07
-2.93995e+07
-2.90946e+07
-2.87896e+07
-2.84847e+07
-2.81797e+07
-2.7875e+07
-2.75693e+07
-2.72653e+07
-2.69564e+07
-2.66555e+07
-2.63329e+07
-2.60397e+07
-2.57052e+07
-2.53442e+07
-2.51213e+07
-2.48357e+07
-2.45312e+07
-2.4236e+07
-2.39219e+07
-2.36151e+07
-2.33093e+07
-2.30052e+07
-2.27013e+07
-2.23975e+07
-2.20934e+07
-2.17892e+07
-2.14849e+07
-2.11807e+07
-2.08766e+07
-2.05727e+07
-2.02687e+07
-1.9965e+07
-1.96598e+07
-1.93549e+07
-1.90523e+07
-1.87487e+07
-1.84437e+07
-1.81395e+07
-1.78349e+07
-1.75303e+07
-1.72258e+07
-1.6921e+07
-1.66162e+07
-1.63113e+07
-1.60063e+07
-1.57013e+07
-1.53963e+07
-1.50913e+07
-1.47864e+07
-1.44814e+07
-1.41764e+07
-1.38714e+07
-1.35664e+07
-1.32614e+07
-1.29564e+07
-1.26514e+07
-1.23464e+07
-1.20414e+07
-1.17364e+07
-1.14314e+07
-1.11264e+07
-1.08215e+07
-1.05165e+07
-1.02115e+07
-9.90657e+06
-9.60159e+06
-9.29662e+06
-8.99167e+06
-8.68673e+06
-8.38178e+06
-8.0768e+06
-7.77185e+06
-7.46692e+06
-7.16196e+06
-6.85701e+06
-6.55203e+06
-6.24705e+06
-5.94214e+06
-5.63721e+06
-5.33228e+06
-5.02736e+06
-4.72245e+06
-4.41755e+06
-4.11268e+06
-3.80776e+06
-3.50299e+06
-3.19831e+06
-2.89382e+06
-2.58983e+06
-2.28541e+06
-1.98244e+06
-1.68438e+06
-1.39161e+06
-1.11578e+06
-851157
-639619
-182553
-4.56548e+07
-4.17876e+07
-4.10093e+07
-4.03854e+07
-4.02552e+07
-3.99817e+07
-3.97749e+07
-3.95201e+07
-3.92741e+07
-3.9016e+07
-3.876e+07
-3.85003e+07
-3.82436e+07
-3.7982e+07
-3.77288e+07
-3.74628e+07
-3.72053e+07
-3.70087e+07
-3.66013e+07
-3.62821e+07
-3.61452e+07
-3.587e+07
-3.56367e+07
-3.53718e+07
-3.51182e+07
-3.48573e+07
-3.45992e+07
-3.43394e+07
-3.40803e+07
-3.38209e+07
-3.35616e+07
-3.33022e+07
-3.30429e+07
-3.27836e+07
-3.25245e+07
-3.22652e+07
-3.20064e+07
-3.17471e+07
-3.14886e+07
-3.12287e+07
-3.09697e+07
-3.07083e+07
-3.04464e+07
-3.01876e+07
-2.99268e+07
-2.96697e+07
-2.94091e+07
-2.91488e+07
-2.88882e+07
-2.86276e+07
-2.83675e+07
-2.81076e+07
-2.78479e+07
-2.75884e+07
-2.7329e+07
-2.70697e+07
-2.68104e+07
-2.65512e+07
-2.62919e+07
-2.60326e+07
-2.57734e+07
-2.55142e+07
-2.52549e+07
-2.49957e+07
-2.47364e+07
-2.44772e+07
-2.4218e+07
-2.39585e+07
-2.36995e+07
-2.34395e+07
-2.31811e+07
-2.29182e+07
-2.26622e+07
-2.23868e+07
-2.2137e+07
-2.18034e+07
-2.1579e+07
-2.14095e+07
-2.11143e+07
-2.08555e+07
-2.05999e+07
-2.03378e+07
-2.00782e+07
-1.98183e+07
-1.956e+07
-1.93011e+07
-1.90428e+07
-1.87841e+07
-1.85254e+07
-1.82667e+07
-1.80079e+07
-1.77493e+07
-1.74907e+07
-1.72322e+07
-1.69739e+07
-1.67145e+07
-1.64568e+07
-1.6198e+07
-1.59402e+07
-1.56812e+07
-1.54223e+07
-1.51636e+07
-1.49044e+07
-1.46455e+07
-1.43863e+07
-1.41272e+07
-1.3868e+07
-1.36087e+07
-1.33494e+07
-1.30901e+07
-1.28308e+07
-1.25715e+07
-1.23122e+07
-1.20529e+07
-1.17936e+07
-1.15342e+07
-1.12749e+07
-1.10156e+07
-1.07563e+07
-1.0497e+07
-1.02377e+07
-9.97837e+06
-9.71907e+06
-9.45976e+06
-9.2005e+06
-8.94123e+06
-8.68194e+06
-8.42265e+06
-8.16335e+06
-7.90408e+06
-7.64479e+06
-7.38553e+06
-7.12625e+06
-6.86696e+06
-6.60771e+06
-6.34844e+06
-6.08916e+06
-5.82988e+06
-5.57059e+06
-5.31129e+06
-5.05206e+06
-4.79279e+06
-4.53356e+06
-4.27431e+06
-4.01508e+06
-3.75586e+06
-3.49663e+06
-3.23737e+06
-2.97827e+06
-2.71912e+06
-2.4603e+06
-2.20137e+06
-1.94305e+06
-1.68666e+06
-1.42953e+06
-1.17379e+06
-922149
-657995
-356573
153637
-4.05295e+07
-3.68566e+07
-3.55901e+07
-3.47793e+07
-3.45415e+07
-3.42539e+07
-3.4059e+07
-3.38335e+07
-3.36215e+07
-3.33999e+07
-3.31809e+07
-3.29585e+07
-3.27397e+07
-3.25148e+07
-3.23071e+07
-3.20676e+07
-3.19734e+07
-3.15927e+07
-3.23326e+07
-3.11408e+07
-3.10729e+07
-3.0718e+07
-3.05173e+07
-3.02813e+07
-3.00641e+07
-2.98399e+07
-2.9619e+07
-2.93966e+07
-2.91748e+07
-2.89527e+07
-2.87308e+07
-2.85087e+07
-2.82868e+07
-2.80648e+07
-2.7843e+07
-2.7621e+07
-2.73995e+07
-2.71773e+07
-2.69563e+07
-2.67332e+07
-2.65129e+07
-2.62887e+07
-2.60685e+07
-2.58488e+07
-2.56187e+07
-2.53983e+07
-2.5175e+07
-2.49522e+07
-2.47298e+07
-2.45067e+07
-2.42844e+07
-2.40618e+07
-2.38396e+07
-2.36174e+07
-2.33954e+07
-2.31733e+07
-2.29514e+07
-2.27294e+07
-2.25075e+07
-2.22855e+07
-2.20636e+07
-2.18417e+07
-2.16197e+07
-2.13978e+07
-2.11759e+07
-2.09539e+07
-2.0732e+07
-2.05099e+07
-2.02882e+07
-2.00656e+07
-1.98449e+07
-1.96199e+07
-1.94064e+07
-1.91711e+07
-1.90299e+07
-1.87134e+07
-1.90843e+07
-1.82738e+07
-1.81497e+07
-1.78488e+07
-1.76358e+07
-1.74106e+07
-1.71892e+07
-1.69664e+07
-1.67453e+07
-1.65232e+07
-1.6302e+07
-1.60803e+07
-1.58589e+07
-1.56374e+07
-1.54157e+07
-1.51944e+07
-1.49727e+07
-1.47516e+07
-1.45301e+07
-1.43084e+07
-1.40897e+07
-1.3866e+07
-1.36457e+07
-1.34243e+07
-1.32023e+07
-1.29811e+07
-1.2759e+07
-1.25375e+07
-1.23155e+07
-1.20937e+07
-1.18718e+07
-1.16499e+07
-1.14279e+07
-1.12059e+07
-1.09839e+07
-1.0762e+07
-1.054e+07
-1.0318e+07
-1.0096e+07
-9.87399e+06
-9.65202e+06
-9.43004e+06
-9.20807e+06
-8.98609e+06
-8.76408e+06
-8.54209e+06
-8.32011e+06
-8.09813e+06
-7.87618e+06
-7.65424e+06
-7.43226e+06
-7.21029e+06
-6.98832e+06
-6.76637e+06
-6.54442e+06
-6.32245e+06
-6.10049e+06
-5.87853e+06
-5.65661e+06
-5.43465e+06
-5.21267e+06
-4.99072e+06
-4.76876e+06
-4.54679e+06
-4.32487e+06
-4.10291e+06
-3.881e+06
-3.65909e+06
-3.43716e+06
-3.21525e+06
-2.99331e+06
-2.77138e+06
-2.5496e+06
-2.32769e+06
-2.10605e+06
-1.88423e+06
-1.66244e+06
-1.44402e+06
-1.22337e+06
-999680
-776013
-527618
-225987
264881
-3.38018e+07
-3.06221e+07
-2.92728e+07
-2.84557e+07
-2.81432e+07
-2.7862e+07
-2.76801e+07
-2.74876e+07
-2.73119e+07
-2.71305e+07
-2.69524e+07
-2.67715e+07
-2.65934e+07
-2.64099e+07
-2.62358e+07
-2.60376e+07
-2.5877e+07
-2.55686e+07
-2.54144e+07
-2.53869e+07
-2.51526e+07
-2.49557e+07
-2.47834e+07
-2.4597e+07
-2.44202e+07
-2.42383e+07
-2.4059e+07
-2.38783e+07
-2.36982e+07
-2.35178e+07
-2.33375e+07
-2.31571e+07
-2.29769e+07
-2.27965e+07
-2.26164e+07
-2.2436e+07
-2.22561e+07
-2.20753e+07
-2.18961e+07
-2.1714e+07
-2.15369e+07
-2.13539e+07
-2.11797e+07
-2.10088e+07
-2.08105e+07
-2.06294e+07
-2.04484e+07
-2.02669e+07
-2.00872e+07
-1.9906e+07
-1.97257e+07
-1.95449e+07
-1.93645e+07
-1.9184e+07
-1.90037e+07
-1.88233e+07
-1.8643e+07
-1.84627e+07
-1.82824e+07
-1.81021e+07
-1.79219e+07
-1.77416e+07
-1.75613e+07
-1.7381e+07
-1.72008e+07
-1.70205e+07
-1.68402e+07
-1.66598e+07
-1.64797e+07
-1.62988e+07
-1.61194e+07
-1.59368e+07
-1.57602e+07
-1.55746e+07
-1.54047e+07
-1.52554e+07
-1.49837e+07
-1.47868e+07
-1.46853e+07
-1.44888e+07
-1.43128e+07
-1.41409e+07
-1.39631e+07
-1.3782e+07
-1.36028e+07
-1.34218e+07
-1.32421e+07
-1.30618e+07
-1.28819e+07
-1.27019e+07
-1.25217e+07
-1.2342e+07
-1.21615e+07
-1.1982e+07
-1.18018e+07
-1.16216e+07
-1.14462e+07
-1.12624e+07
-1.10841e+07
-1.09048e+07
-1.07239e+07
-1.05446e+07
-1.03638e+07
-1.01841e+07
-1.00036e+07
-9.82353e+06
-9.64319e+06
-9.46295e+06
-9.28263e+06
-9.10234e+06
-8.92203e+06
-8.74173e+06
-8.56142e+06
-8.38112e+06
-8.2008e+06
-8.02046e+06
-7.84016e+06
-7.65984e+06
-7.47954e+06
-7.29923e+06
-7.11889e+06
-6.93858e+06
-6.75828e+06
-6.57797e+06
-6.39768e+06
-6.2174e+06
-6.03708e+06
-5.85679e+06
-5.67648e+06
-5.4962e+06
-5.3159e+06
-5.1356e+06
-4.95531e+06
-4.77503e+06
-4.59477e+06
-4.41447e+06
-4.23416e+06
-4.05386e+06
-3.87357e+06
-3.69326e+06
-3.51301e+06
-3.33271e+06
-3.15248e+06
-2.97223e+06
-2.79193e+06
-2.61168e+06
-2.43141e+06
-2.25111e+06
-2.07098e+06
-1.89042e+06
-1.71062e+06
-1.52903e+06
-1.35063e+06
-1.17661e+06
-990926
-803721
-613998
-394424
-121301
302798
-2.69218e+07
-2.42526e+07
-2.30939e+07
-2.23465e+07
-2.20439e+07
-2.17944e+07
-2.16393e+07
-2.14832e+07
-2.13439e+07
-2.12014e+07
-2.10621e+07
-2.09205e+07
-2.07818e+07
-2.06377e+07
-2.05046e+07
-2.03484e+07
-2.02377e+07
-2.00301e+07
-1.97703e+07
-1.97783e+07
-1.96708e+07
-1.95007e+07
-1.93699e+07
-1.92214e+07
-1.90834e+07
-1.89409e+07
-1.88008e+07
-1.86596e+07
-1.85189e+07
-1.83779e+07
-1.8237e+07
-1.80961e+07
-1.79552e+07
-1.78143e+07
-1.76735e+07
-1.75325e+07
-1.7392e+07
-1.72504e+07
-1.71109e+07
-1.69676e+07
-1.68319e+07
-1.66872e+07
-1.65596e+07
-1.6427e+07
-1.62587e+07
-1.61191e+07
-1.59778e+07
-1.58361e+07
-1.56966e+07
-1.55551e+07
-1.54146e+07
-1.52733e+07
-1.51324e+07
-1.49913e+07
-1.48504e+07
-1.47094e+07
-1.45685e+07
-1.44276e+07
-1.42867e+07
-1.41458e+07
-1.4005e+07
-1.38641e+07
-1.37232e+07
-1.35823e+07
-1.34415e+07
-1.33006e+07
-1.31597e+07
-1.30187e+07
-1.2878e+07
-1.27366e+07
-1.25966e+07
-1.24538e+07
-1.23176e+07
-1.21702e+07
-1.20476e+07
-1.18851e+07
-1.16563e+07
-1.15834e+07
-1.14855e+07
-1.13171e+07
-1.11796e+07
-1.10526e+07
-1.09128e+07
-1.07709e+07
-1.06309e+07
-1.04887e+07
-1.03483e+07
-1.02072e+07
-1.00665e+07
-9.92585e+06
-9.78482e+06
-9.6445e+06
-9.50271e+06
-9.36294e+06
-9.2211e+06
-9.08133e+06
-8.9487e+06
-8.79994e+06
-8.6615e+06
-8.52197e+06
-8.37986e+06
-8.24036e+06
-8.09865e+06
-7.95838e+06
-7.81721e+06
-7.67655e+06
-7.53559e+06
-7.39477e+06
-7.25385e+06
-7.11297e+06
-6.97206e+06
-6.83118e+06
-6.69028e+06
-6.54939e+06
-6.40848e+06
-6.26754e+06
-6.12666e+06
-5.98574e+06
-5.84485e+06
-5.70394e+06
-5.56302e+06
-5.42212e+06
-5.28123e+06
-5.14033e+06
-4.99944e+06
-4.85856e+06
-4.71765e+06
-4.57676e+06
-4.43586e+06
-4.29497e+06
-4.15407e+06
-4.01318e+06
-3.87231e+06
-3.73143e+06
-3.59057e+06
-3.44966e+06
-3.30876e+06
-3.16787e+06
-3.02697e+06
-2.88606e+06
-2.74523e+06
-2.60434e+06
-2.4635e+06
-2.32266e+06
-2.18172e+06
-2.04089e+06
-1.90003e+06
-1.75912e+06
-1.61836e+06
-1.47719e+06
-1.33658e+06
-1.19483e+06
-1.05193e+06
-917873
-776310
-624516
-471717
-291117
-67102.8
275204
-1.94175e+07
-1.74505e+07
-1.65658e+07
-1.59816e+07
-1.57281e+07
-1.55324e+07
-1.54124e+07
-1.52971e+07
-1.51962e+07
-1.5094e+07
-1.49947e+07
-1.48936e+07
-1.47948e+07
-1.46914e+07
-1.45948e+07
-1.44808e+07
-1.43881e+07
-1.42394e+07
-1.41246e+07
-1.40966e+07
-1.39878e+07
-1.38839e+07
-1.37877e+07
-1.36839e+07
-1.35856e+07
-1.34843e+07
-1.33846e+07
-1.32841e+07
-1.31839e+07
-1.30835e+07
-1.29833e+07
-1.28829e+07
-1.27827e+07
-1.26823e+07
-1.25822e+07
-1.24816e+07
-1.23817e+07
-1.22803e+07
-1.21816e+07
-1.20773e+07
-1.19838e+07
-1.18754e+07
-1.17961e+07
-1.1727e+07
-1.15765e+07
-1.14699e+07
-1.13738e+07
-1.12713e+07
-1.11743e+07
-1.10733e+07
-1.09739e+07
-1.08733e+07
-1.07731e+07
-1.06726e+07
-1.05723e+07
-1.04719e+07
-1.03716e+07
-1.02713e+07
-1.0171e+07
-1.00707e+07
-9.97039e+06
-9.87009e+06
-9.7698e+06
-9.66951e+06
-9.56923e+06
-9.4689e+06
-9.36863e+06
-9.26819e+06
-9.16804e+06
-9.06728e+06
-8.96762e+06
-8.86592e+06
-8.76787e+06
-8.66472e+06
-8.56731e+06
-8.47078e+06
-8.32943e+06
-8.23355e+06
-8.16796e+06
-8.04856e+06
-7.93516e+06
-7.86675e+06
-7.77277e+06
-7.66874e+06
-7.57028e+06
-7.46746e+06
-7.36764e+06
-7.26673e+06
-7.16656e+06
-7.06639e+06
-6.96575e+06
-6.866e+06
-6.76424e+06
-6.6651e+06
-6.56294e+06
-6.46278e+06
-6.37339e+06
-6.26295e+06
-6.16569e+06
-6.06849e+06
-5.96549e+06
-5.86717e+06
-5.76545e+06
-5.66587e+06
-5.56513e+06
-5.46508e+06
-5.36468e+06
-5.26446e+06
-5.16413e+06
-5.06384e+06
-4.96353e+06
-4.86324e+06
-4.76292e+06
-4.66262e+06
-4.5623e+06
-4.46197e+06
-4.36167e+06
-4.26136e+06
-4.16105e+06
-4.06074e+06
-3.96041e+06
-3.8601e+06
-3.7598e+06
-3.65949e+06
-3.55918e+06
-3.45889e+06
-3.35858e+06
-3.25828e+06
-3.15797e+06
-3.05766e+06
-2.95735e+06
-2.85705e+06
-2.75677e+06
-2.65647e+06
-2.55619e+06
-2.45588e+06
-2.35556e+06
-2.25525e+06
-2.15494e+06
-2.05462e+06
-1.95439e+06
-1.85409e+06
-1.7538e+06
-1.65354e+06
-1.55319e+06
-1.45295e+06
-1.35268e+06
-1.25229e+06
-1.15213e+06
-1.05113e+06
-951541
-844762
-751819
-605025
-548820
-435627
-329495
-195256
-31018.6
218177
-1.17646e+07
-1.0555e+07
-1.00129e+07
-9.63948e+06
-9.47528e+06
-9.35057e+06
-9.27525e+06
-9.2044e+06
-9.14319e+06
-9.08144e+06
-9.02173e+06
-8.96074e+06
-8.90162e+06
-8.83862e+06
-8.78152e+06
-8.71075e+06
-8.65644e+06
-8.56857e+06
-8.47036e+06
-8.46757e+06
-8.41546e+06
-8.35145e+06
-8.29586e+06
-8.23244e+06
-8.17386e+06
-8.11259e+06
-8.05281e+06
-7.99222e+06
-7.93204e+06
-7.87164e+06
-7.81134e+06
-7.75097e+06
-7.69068e+06
-7.63028e+06
-7.57008e+06
-7.50945e+06
-7.44953e+06
-7.38791e+06
-7.32942e+06
-7.26456e+06
-7.2137e+06
-7.14306e+06
-7.12209e+06
-7.07354e+06
-6.94848e+06
-6.89571e+06
-6.83992e+06
-6.77878e+06
-6.72248e+06
-6.66164e+06
-6.60246e+06
-6.54184e+06
-6.48168e+06
-6.42117e+06
-6.36082e+06
-6.30039e+06
-6.24003e+06
-6.17965e+06
-6.1193e+06
-6.05895e+06
-5.99861e+06
-5.93827e+06
-5.87793e+06
-5.81759e+06
-5.75725e+06
-5.69688e+06
-5.63656e+06
-5.57609e+06
-5.51587e+06
-5.45514e+06
-5.39536e+06
-5.33381e+06
-5.2755e+06
-5.21191e+06
-5.15468e+06
-5.08788e+06
-4.996e+06
-4.95196e+06
-4.91534e+06
-4.82437e+06
-4.76186e+06
-4.74377e+06
-4.68012e+06
-4.6159e+06
-4.55647e+06
-4.49312e+06
-4.43314e+06
-4.37201e+06
-4.3117e+06
-4.25145e+06
-4.19049e+06
-4.13079e+06
-4.06786e+06
-4.0096e+06
-3.94403e+06
-3.88816e+06
-3.84779e+06
-3.76498e+06
-3.70857e+06
-3.6523e+06
-3.58832e+06
-3.53063e+06
-3.46844e+06
-3.40899e+06
-3.34808e+06
-3.28803e+06
-3.22756e+06
-3.16731e+06
-3.10693e+06
-3.04661e+06
-2.98625e+06
-2.92592e+06
-2.86557e+06
-2.80521e+06
-2.74487e+06
-2.68449e+06
-2.62416e+06
-2.56381e+06
-2.50346e+06
-2.44312e+06
-2.38274e+06
-2.3224e+06
-2.26205e+06
-2.2017e+06
-2.14135e+06
-2.08101e+06
-2.02066e+06
-1.96032e+06
-1.89996e+06
-1.83961e+06
-1.77925e+06
-1.71891e+06
-1.65859e+06
-1.59823e+06
-1.53791e+06
-1.47756e+06
-1.41719e+06
-1.35683e+06
-1.29649e+06
-1.23614e+06
-1.17586e+06
-1.11551e+06
-1.05514e+06
-994854
-934460
-874156
-813838
-753424
-693231
-632543
-572895
-511211
-456341
-395012
-325715
-263633
-195583
-114402
-6897.88
136553
-3.92319e+06
-3.51797e+06
-3.33278e+06
-3.20565e+06
-3.14798e+06
-3.10523e+06
-3.07936e+06
-3.05548e+06
-3.03506e+06
-3.01446e+06
-2.99481e+06
-2.97426e+06
-2.95505e+06
-2.93271e+06
-2.91429e+06
-2.88589e+06
-2.86725e+06
-2.82849e+06
-2.79707e+06
-2.80948e+06
-2.78903e+06
-2.77067e+06
-2.75312e+06
-2.73176e+06
-2.71301e+06
-2.6924e+06
-2.67284e+06
-2.65265e+06
-2.63276e+06
-2.6127e+06
-2.59273e+06
-2.57268e+06
-2.55271e+06
-2.53263e+06
-2.51274e+06
-2.49238e+06
-2.47276e+06
-2.45097e+06
-2.43276e+06
-2.40468e+06
-2.39523e+06
-2.34521e+06
-2.37964e+06
-2.46077e+06
-2.30948e+06
-2.26134e+06
-2.2678e+06
-2.24289e+06
-2.23073e+06
-2.20989e+06
-2.19159e+06
-2.17128e+06
-2.15154e+06
-2.13135e+06
-2.11132e+06
-2.09121e+06
-2.07116e+06
-2.0511e+06
-2.03106e+06
-2.01102e+06
-1.99099e+06
-1.97096e+06
-1.95094e+06
-1.93091e+06
-1.91088e+06
-1.89082e+06
-1.87081e+06
-1.85067e+06
-1.83073e+06
-1.81038e+06
-1.79072e+06
-1.7698e+06
-1.7508e+06
-1.72892e+06
-1.7091e+06
-1.68794e+06
-1.65389e+06
-1.63355e+06
-1.64555e+06
-1.58718e+06
-1.50333e+06
-1.57156e+06
-1.57258e+06
-1.53373e+06
-1.5174e+06
-1.49178e+06
-1.47232e+06
-1.45114e+06
-1.43112e+06
-1.41114e+06
-1.39035e+06
-1.37108e+06
-1.34794e+06
-1.33006e+06
-1.30353e+06
-1.28259e+06
-1.28534e+06
-1.24339e+06
-1.22827e+06
-1.218e+06
-1.19004e+06
-1.17379e+06
-1.15079e+06
-1.13184e+06
-1.11103e+06
-1.09134e+06
-1.07115e+06
-1.05123e+06
-1.03117e+06
-1.01117e+06
-991135
-971126
-951093
-931054
-911031
-890983
-870974
-850944
-830912
-810888
-790840
-770810
-750784
-730762
-710726
-690707
-670674
-650650
-630601
-610560
-590523
-570498
-550489
-530455
-510453
-490418
-470355
-450299
-430300
-410273
-390289
-370247
-350186
-330232
-310146
-290126
-270136
-250035
-230131
-209651
-190201
-168441
-151218
-136184
-108633
-85295.4
-64231.4
-37110.8
-4189.61
46728.1
3.92449e+06
3.51916e+06
3.3339e+06
3.20671e+06
3.14898e+06
3.1062e+06
3.08022e+06
3.05631e+06
3.03562e+06
3.01509e+06
2.99479e+06
2.97506e+06
2.95438e+06
2.93612e+06
2.91483e+06
2.90081e+06
2.88029e+06
2.87127e+06
2.86449e+06
2.821e+06
2.79835e+06
2.77656e+06
2.7541e+06
2.73493e+06
2.71383e+06
2.69421e+06
2.67379e+06
2.65387e+06
2.6337e+06
2.61368e+06
2.59358e+06
2.57354e+06
2.55344e+06
2.53344e+06
2.51324e+06
2.49352e+06
2.47305e+06
2.45465e+06
2.43267e+06
2.41957e+06
2.38677e+06
2.39046e+06
2.26142e+06
2.26244e+06
2.38116e+06
2.31587e+06
2.2781e+06
2.25976e+06
2.23274e+06
2.21353e+06
2.19181e+06
2.1721e+06
2.15177e+06
2.1319e+06
2.11186e+06
2.09191e+06
2.07189e+06
2.05189e+06
2.03187e+06
2.01185e+06
1.99182e+06
1.97178e+06
1.95174e+06
1.93171e+06
1.91167e+06
1.89167e+06
1.87162e+06
1.85168e+06
1.83157e+06
1.81181e+06
1.79149e+06
1.77221e+06
1.75142e+06
1.73318e+06
1.71305e+06
1.69601e+06
1.6853e+06
1.66599e+06
1.62299e+06
1.67745e+06
1.64085e+06
1.52632e+06
1.53537e+06
1.52792e+06
1.5064e+06
1.4913e+06
1.47068e+06
1.45176e+06
1.43172e+06
1.41159e+06
1.3926e+06
1.37154e+06
1.35676e+06
1.33217e+06
1.33139e+06
1.29254e+06
1.22129e+06
1.26501e+06
1.23884e+06
1.20623e+06
1.19464e+06
1.16959e+06
1.15279e+06
1.1314e+06
1.11221e+06
1.09177e+06
1.07191e+06
1.05175e+06
1.03175e+06
1.01167e+06
991632
971569
951524
931492
911443
891418
871361
851321
831286
811237
791210
771168
751123
731071
711035
690991
670962
650920
630902
610878
590848
570807
550738
530698
510644
490627
470624
450605
430522
410486
390433
370394
350393
330290
310306
290264
270183
250200
230055
210291
189764
170241
148322
127353
110787
89337.7
65435.5
36870.4
2166.23
-49191.9
1.17659e+07
1.05562e+07
1.0014e+07
9.64054e+06
9.47629e+06
9.35155e+06
9.27612e+06
9.20524e+06
9.14376e+06
9.08207e+06
9.02167e+06
8.96144e+06
8.90063e+06
8.84157e+06
8.78042e+06
8.72437e+06
8.66412e+06
8.61074e+06
8.55602e+06
8.48135e+06
8.42034e+06
8.35758e+06
8.29574e+06
8.23564e+06
8.17451e+06
8.11439e+06
8.05373e+06
7.99345e+06
7.93297e+06
7.87262e+06
7.8122e+06
7.75183e+06
7.6914e+06
7.63107e+06
7.57054e+06
7.51052e+06
7.44974e+06
7.39147e+06
7.32945e+06
7.28256e+06
7.21055e+06
7.26582e+06
7.07345e+06
7.79818e+06
6.95321e+06
7.02395e+06
6.84748e+06
6.7981e+06
6.72392e+06
6.66502e+06
6.60249e+06
6.54254e+06
6.48187e+06
6.42171e+06
6.36135e+06
6.30109e+06
6.24076e+06
6.18045e+06
6.12011e+06
6.05978e+06
5.99943e+06
5.93909e+06
5.87874e+06
5.81839e+06
5.75804e+06
5.69772e+06
5.63736e+06
5.57709e+06
5.5167e+06
5.45657e+06
5.39604e+06
5.33626e+06
5.27551e+06
5.21636e+06
5.15599e+06
5.09722e+06
5.03618e+06
4.98043e+06
4.83612e+06
4.86688e+06
4.25872e+06
4.74367e+06
4.59191e+06
4.61188e+06
4.54374e+06
4.49302e+06
4.43167e+06
4.37275e+06
4.31232e+06
4.25182e+06
4.19245e+06
4.13076e+06
4.07521e+06
4.01009e+06
3.96554e+06
3.91581e+06
3.81283e+06
3.78848e+06
3.72027e+06
3.63032e+06
3.59251e+06
3.52539e+06
3.47043e+06
3.40851e+06
3.34926e+06
3.28847e+06
3.22832e+06
3.16783e+06
3.10751e+06
3.04711e+06
2.98675e+06
2.92636e+06
2.86599e+06
2.80564e+06
2.74528e+06
2.68493e+06
2.62456e+06
2.56419e+06
2.50383e+06
2.44346e+06
2.38311e+06
2.32275e+06
2.26239e+06
2.20201e+06
2.14166e+06
2.0813e+06
2.02096e+06
1.9606e+06
1.90026e+06
1.83992e+06
1.77958e+06
1.71921e+06
1.65882e+06
1.59846e+06
1.53811e+06
1.47779e+06
1.41746e+06
1.35711e+06
1.29672e+06
1.23636e+06
1.17601e+06
1.11564e+06
1.05534e+06
994946
934630
874264
813866
753574
693146
633045
572391
512407
451109
388698
330588
267601
197014
114087
12036.7
-140021
1.94188e+07
1.74517e+07
1.65669e+07
1.59827e+07
1.57291e+07
1.55334e+07
1.54133e+07
1.5298e+07
1.51968e+07
1.50947e+07
1.49946e+07
1.48942e+07
1.47935e+07
1.4694e+07
1.45929e+07
1.44953e+07
1.43949e+07
1.42984e+07
1.42027e+07
1.40925e+07
1.39912e+07
1.38889e+07
1.37874e+07
1.36872e+07
1.35862e+07
1.34861e+07
1.33855e+07
1.32853e+07
1.31849e+07
1.30845e+07
1.29841e+07
1.28838e+07
1.27834e+07
1.26831e+07
1.25826e+07
1.24825e+07
1.23817e+07
1.22828e+07
1.21812e+07
1.20872e+07
1.19845e+07
1.19013e+07
1.18461e+07
1.16089e+07
1.14867e+07
1.14936e+07
1.13691e+07
1.12809e+07
1.11737e+07
1.10753e+07
1.09735e+07
1.08737e+07
1.07732e+07
1.06731e+07
1.05728e+07
1.04726e+07
1.03724e+07
1.02721e+07
1.01718e+07
1.00715e+07
9.97121e+06
9.87091e+06
9.77061e+06
9.67031e+06
9.57001e+06
9.46973e+06
9.36942e+06
9.26919e+06
9.16885e+06
9.06872e+06
8.96829e+06
8.86846e+06
8.76791e+06
8.66865e+06
8.56854e+06
8.46973e+06
8.37098e+06
8.26957e+06
8.15506e+06
8.02463e+06
8.01666e+06
7.93023e+06
7.7564e+06
7.67296e+06
7.56422e+06
7.46878e+06
7.36713e+06
7.26776e+06
7.16729e+06
7.0667e+06
6.96759e+06
6.86563e+06
6.77373e+06
6.66436e+06
6.63258e+06
6.45244e+06
6.80934e+06
6.30389e+06
6.19602e+06
6.05693e+06
5.97264e+06
5.86377e+06
5.76797e+06
5.66572e+06
5.56641e+06
5.46558e+06
5.36546e+06
5.26499e+06
5.1647e+06
5.06433e+06
4.96401e+06
4.86367e+06
4.76335e+06
4.66304e+06
4.56272e+06
4.46241e+06
4.36207e+06
4.26173e+06
4.16142e+06
4.06108e+06
3.96077e+06
3.86045e+06
3.76013e+06
3.65981e+06
3.5595e+06
3.45918e+06
3.35888e+06
3.25856e+06
3.15827e+06
3.05797e+06
2.95766e+06
2.85735e+06
2.757e+06
2.6567e+06
2.55639e+06
2.45611e+06
2.35581e+06
2.2555e+06
2.15517e+06
2.05485e+06
1.95455e+06
1.85423e+06
1.75398e+06
1.65365e+06
1.55337e+06
1.45302e+06
1.35266e+06
1.25247e+06
1.15215e+06
1.05193e+06
951348
851148
750598
649008
549563
444666
330415
195613
29245.1
-220592
2.69231e+07
2.42537e+07
2.3095e+07
2.23476e+07
2.20449e+07
2.17954e+07
2.16402e+07
2.14841e+07
2.13445e+07
2.1202e+07
2.10618e+07
2.09208e+07
2.07796e+07
2.0639e+07
2.04972e+07
2.03576e+07
2.02163e+07
2.00771e+07
1.99382e+07
1.97911e+07
1.96499e+07
1.95074e+07
1.93658e+07
1.92248e+07
1.90835e+07
1.89427e+07
1.88016e+07
1.86608e+07
1.85198e+07
1.83788e+07
1.82379e+07
1.80969e+07
1.79559e+07
1.7815e+07
1.76739e+07
1.75331e+07
1.73917e+07
1.7252e+07
1.71096e+07
1.69755e+07
1.68289e+07
1.67138e+07
1.65454e+07
1.62769e+07
1.62351e+07
1.61457e+07
1.59743e+07
1.58433e+07
1.56948e+07
1.5556e+07
1.54137e+07
1.52735e+07
1.51324e+07
1.49918e+07
1.48509e+07
1.47101e+07
1.45693e+07
1.44284e+07
1.42875e+07
1.41467e+07
1.40058e+07
1.38649e+07
1.3724e+07
1.35831e+07
1.34423e+07
1.33014e+07
1.31605e+07
1.30197e+07
1.28787e+07
1.2738e+07
1.2597e+07
1.24565e+07
1.23155e+07
1.21753e+07
1.20345e+07
1.18948e+07
1.17529e+07
1.16147e+07
1.14548e+07
1.13333e+07
1.12783e+07
1.10704e+07
1.08938e+07
1.07742e+07
1.06264e+07
1.04909e+07
1.03486e+07
1.02085e+07
1.00673e+07
9.92594e+06
9.78583e+06
9.64264e+06
9.50637e+06
9.35188e+06
9.23132e+06
8.96705e+06
8.92036e+06
8.3775e+06
8.68254e+06
8.4584e+06
8.38475e+06
8.23396e+06
8.10112e+06
7.95821e+06
7.81854e+06
7.67709e+06
7.53638e+06
7.3953e+06
7.25442e+06
7.11346e+06
6.97254e+06
6.83161e+06
6.6907e+06
6.54981e+06
6.40889e+06
6.26798e+06
6.12705e+06
5.98612e+06
5.84521e+06
5.70429e+06
5.56339e+06
5.42247e+06
5.28156e+06
5.14066e+06
4.99975e+06
4.85884e+06
4.71795e+06
4.57705e+06
4.43617e+06
4.29528e+06
4.15438e+06
4.01347e+06
3.87255e+06
3.73167e+06
3.59077e+06
3.4499e+06
3.309e+06
3.1681e+06
3.02718e+06
2.88628e+06
2.74541e+06
2.60452e+06
2.46369e+06
2.32275e+06
2.18185e+06
2.04094e+06
1.90007e+06
1.75927e+06
1.61828e+06
1.47744e+06
1.33657e+06
1.19563e+06
1.05511e+06
913022
773553
630013
472152
290688
66176.4
-277069
3.38031e+07
3.06232e+07
2.92739e+07
2.84568e+07
2.81442e+07
2.7863e+07
2.7681e+07
2.74885e+07
2.73125e+07
2.71312e+07
2.69522e+07
2.67717e+07
2.65911e+07
2.64105e+07
2.62291e+07
2.60489e+07
2.58675e+07
2.56872e+07
2.55079e+07
2.53237e+07
2.51433e+07
2.4962e+07
2.47813e+07
2.4601e+07
2.44205e+07
2.42402e+07
2.40598e+07
2.38795e+07
2.36991e+07
2.35187e+07
2.33384e+07
2.3158e+07
2.29776e+07
2.27972e+07
2.26167e+07
2.24364e+07
2.22555e+07
2.20756e+07
2.18939e+07
2.17161e+07
2.1534e+07
2.13572e+07
2.1186e+07
2.09473e+07
2.0775e+07
2.06293e+07
2.04384e+07
2.0267e+07
2.00831e+07
1.99052e+07
1.97242e+07
1.95448e+07
1.93645e+07
1.91845e+07
1.90042e+07
1.88241e+07
1.86438e+07
1.84635e+07
1.82832e+07
1.8103e+07
1.79227e+07
1.77424e+07
1.75621e+07
1.73819e+07
1.72016e+07
1.70213e+07
1.6841e+07
1.66607e+07
1.64804e+07
1.63002e+07
1.61199e+07
1.59399e+07
1.57595e+07
1.55798e+07
1.53997e+07
1.52204e+07
1.50406e+07
1.48609e+07
1.46781e+07
1.44923e+07
1.43519e+07
1.41663e+07
1.39624e+07
1.37897e+07
1.36033e+07
1.34255e+07
1.32436e+07
1.30636e+07
1.28828e+07
1.27019e+07
1.25223e+07
1.23399e+07
1.21643e+07
1.19758e+07
1.18136e+07
1.15999e+07
1.13445e+07
1.13057e+07
1.11462e+07
1.08993e+07
1.07345e+07
1.05436e+07
1.03672e+07
1.01846e+07
1.00051e+07
9.82415e+06
9.64398e+06
9.46349e+06
9.2832e+06
9.10282e+06
8.92249e+06
8.74216e+06
8.56184e+06
8.38154e+06
8.20121e+06
8.02089e+06
7.84056e+06
7.66022e+06
7.4799e+06
7.29958e+06
7.11927e+06
6.93894e+06
6.75862e+06
6.5783e+06
6.398e+06
6.21768e+06
6.03738e+06
5.85709e+06
5.6768e+06
5.4965e+06
5.31619e+06
5.13588e+06
4.95557e+06
4.77527e+06
4.59497e+06
4.41471e+06
4.23441e+06
4.05408e+06
3.87376e+06
3.69345e+06
3.5132e+06
3.33294e+06
3.15268e+06
2.9723e+06
2.792e+06
2.61175e+06
2.43146e+06
2.25122e+06
2.07085e+06
1.89056e+06
1.71046e+06
1.53003e+06
1.35048e+06
1.16932e+06
991383
808497
614522
393637
120529
-304216
4.05307e+07
3.68577e+07
3.55912e+07
3.47804e+07
3.45425e+07
3.4255e+07
3.406e+07
3.38345e+07
3.36222e+07
3.34006e+07
3.31807e+07
3.29585e+07
3.27361e+07
3.25135e+07
3.229e+07
3.20669e+07
3.1843e+07
3.16197e+07
3.13974e+07
3.11734e+07
3.09519e+07
3.07295e+07
3.05077e+07
3.02858e+07
3.00637e+07
2.98418e+07
2.96197e+07
2.93978e+07
2.91757e+07
2.89537e+07
2.87316e+07
2.85096e+07
2.82875e+07
2.80655e+07
2.78432e+07
2.76211e+07
2.73984e+07
2.71764e+07
2.69526e+07
2.67318e+07
2.65063e+07
2.62867e+07
2.60612e+07
2.57992e+07
2.56027e+07
2.53942e+07
2.51641e+07
2.49485e+07
2.47239e+07
2.45045e+07
2.42823e+07
2.40613e+07
2.38395e+07
2.36179e+07
2.3396e+07
2.31741e+07
2.29522e+07
2.27303e+07
2.25083e+07
2.22864e+07
2.20644e+07
2.18425e+07
2.16206e+07
2.13986e+07
2.11767e+07
2.09547e+07
2.07328e+07
2.05108e+07
2.02889e+07
2.0067e+07
1.9845e+07
1.96232e+07
1.94012e+07
1.91796e+07
1.89578e+07
1.87367e+07
1.85151e+07
1.82956e+07
1.80727e+07
1.78543e+07
1.76601e+07
1.74216e+07
1.71906e+07
1.69746e+07
1.67483e+07
1.65282e+07
1.63045e+07
1.60825e+07
1.58599e+07
1.56371e+07
1.54154e+07
1.51911e+07
1.49717e+07
1.47417e+07
1.45294e+07
1.42786e+07
1.40719e+07
1.39385e+07
1.3662e+07
1.34146e+07
1.32098e+07
1.29803e+07
1.27625e+07
1.25383e+07
1.2317e+07
1.20944e+07
1.18726e+07
1.16504e+07
1.14284e+07
1.12064e+07
1.09844e+07
1.07624e+07
1.05404e+07
1.03184e+07
1.00964e+07
9.87443e+06
9.65243e+06
9.43041e+06
9.20842e+06
8.98643e+06
8.76445e+06
8.54245e+06
8.32045e+06
8.09847e+06
7.8765e+06
7.65452e+06
7.43256e+06
7.2106e+06
6.98864e+06
6.76667e+06
6.54469e+06
6.32272e+06
6.10075e+06
5.87879e+06
5.65682e+06
5.43489e+06
5.21293e+06
4.99092e+06
4.76893e+06
4.54699e+06
4.32508e+06
4.10314e+06
3.88116e+06
3.65915e+06
3.43726e+06
3.21534e+06
2.99334e+06
2.77142e+06
2.54942e+06
2.32743e+06
2.10578e+06
1.88361e+06
1.66318e+06
1.44055e+06
1.22481e+06
1.01113e+06
775623
525701
225442
-265981
4.5656e+07
4.17886e+07
4.10103e+07
4.03865e+07
4.02563e+07
3.99827e+07
3.97759e+07
3.95212e+07
3.9275e+07
3.90169e+07
3.87599e+07
3.85003e+07
3.82405e+07
3.79801e+07
3.77189e+07
3.74573e+07
3.71953e+07
3.69332e+07
3.66727e+07
3.6413e+07
3.61547e+07
3.58957e+07
3.56368e+07
3.53777e+07
3.51184e+07
3.48592e+07
3.45998e+07
3.43405e+07
3.40812e+07
3.38218e+07
3.35625e+07
3.33031e+07
3.30437e+07
3.27843e+07
3.25247e+07
3.22652e+07
3.2005e+07
3.17452e+07
3.14838e+07
3.12231e+07
3.09613e+07
3.06979e+07
3.0445e+07
3.01746e+07
2.99137e+07
2.96561e+07
2.93939e+07
2.91399e+07
2.88804e+07
2.8624e+07
2.83651e+07
2.81069e+07
2.78478e+07
2.75889e+07
2.73297e+07
2.70705e+07
2.68113e+07
2.6552e+07
2.62928e+07
2.60335e+07
2.57742e+07
2.5515e+07
2.52557e+07
2.49965e+07
2.47372e+07
2.44779e+07
2.42187e+07
2.39594e+07
2.37001e+07
2.34409e+07
2.31815e+07
2.29224e+07
2.26631e+07
2.2404e+07
2.21449e+07
2.18863e+07
2.16281e+07
2.13712e+07
2.11162e+07
2.08542e+07
2.06037e+07
2.03464e+07
2.00864e+07
1.98295e+07
1.95667e+07
1.93076e+07
1.90463e+07
1.87866e+07
1.85265e+07
1.82663e+07
1.8007e+07
1.77455e+07
1.7488e+07
1.72243e+07
1.69706e+07
1.67111e+07
1.64339e+07
1.62131e+07
1.59568e+07
1.56867e+07
1.54323e+07
1.51661e+07
1.49085e+07
1.46468e+07
1.43879e+07
1.41279e+07
1.38687e+07
1.36092e+07
1.33499e+07
1.30905e+07
1.28312e+07
1.25719e+07
1.23126e+07
1.20533e+07
1.1794e+07
1.15347e+07
1.12753e+07
1.1016e+07
1.07567e+07
1.04974e+07
1.02381e+07
9.97874e+06
9.71941e+06
9.4601e+06
9.20081e+06
8.94152e+06
8.68223e+06
8.42295e+06
8.16367e+06
7.90438e+06
7.64508e+06
7.38579e+06
7.12649e+06
6.86722e+06
6.60794e+06
6.34869e+06
6.08938e+06
5.83003e+06
5.57076e+06
5.31152e+06
5.05227e+06
4.79298e+06
4.53369e+06
4.27441e+06
4.01522e+06
3.75597e+06
3.49662e+06
3.23735e+06
2.97807e+06
2.71872e+06
2.45981e+06
2.20026e+06
1.94268e+06
1.68283e+06
1.43136e+06
1.17628e+06
922448
655313
356440
-154369
5.25261e+07
4.65666e+07
4.74631e+07
4.70804e+07
4.72083e+07
4.69732e+07
4.67667e+07
4.64799e+07
4.61937e+07
4.58913e+07
4.5589e+07
4.52836e+07
4.49779e+07
4.46713e+07
4.43638e+07
4.40553e+07
4.37464e+07
4.3437e+07
4.31297e+07
4.2826e+07