/*--------------------------------*- C++ -*----------------------------------*\
| =========                 |                                                 |
| \\      /  F ield         | foam-extend: Open Source CFD                    |
|  \\    /   O peration     | Version:     4.0                                |
|   \\  /    A nd           | Web:         http://www.foam-extend.org         |
|    \\/     M anipulation  |                                                 |
\*---------------------------------------------------------------------------*/
FoamFile
{
    version     2.0;
    format      ascii;
    class       volVectorField;
    location    "1";
    object      D;
}
// * * * * * * * * * * * * * * * * * * * * * * * * * * * * * * * * * * * * * //

dimensions      [0 1 0 0 0 0 0];

internalField   nonuniform List<vector> 
10240
(
(-1.99875e-06 -1.87358e-06 0)
(-5.10698e-06 -3.42241e-06 0)
(-8.31053e-06 -4.85451e-06 0)
(-1.14101e-05 -6.4285e-06 0)
(-1.45625e-05 -8.28663e-06 0)
(-1.7717e-05 -1.04882e-05 0)
(-2.08928e-05 -1.30695e-05 0)
(-2.40734e-05 -1.60461e-05 0)
(-2.72586e-05 -1.9428e-05 0)
(-3.04417e-05 -2.32186e-05 0)
(-3.36211e-05 -2.74198e-05 0)
(-3.67939e-05 -3.20314e-05 0)
(-3.99591e-05 -3.70527e-05 0)
(-4.31158e-05 -4.24826e-05 0)
(-4.62628e-05 -4.83201e-05 0)
(-4.94009e-05 -5.45632e-05 0)
(-5.25278e-05 -6.12119e-05 0)
(-5.56454e-05 -6.82613e-05 0)
(-5.87523e-05 -7.57093e-05 0)
(-6.18427e-05 -8.35652e-05 0)
(-6.49299e-05 -9.18196e-05 0)
(-6.80036e-05 -0.000100468 0)
(-7.107e-05 -0.000109513 0)
(-7.4125e-05 -0.000118953 0)
(-7.71704e-05 -0.000128787 0)
(-8.02052e-05 -0.000139013 0)
(-8.32299e-05 -0.00014963 0)
(-8.62442e-05 -0.000160636 0)
(-8.92482e-05 -0.000172031 0)
(-9.2242e-05 -0.000183813 0)
(-9.52254e-05 -0.00019598 0)
(-9.81986e-05 -0.000208532 0)
(-0.000101161 -0.000221467 0)
(-0.000104114 -0.000234783 0)
(-0.000107056 -0.00024848 0)
(-0.000109989 -0.000262555 0)
(-0.00011291 -0.000277009 0)
(-0.000115822 -0.000291838 0)
(-0.000118723 -0.000307043 0)
(-0.000121615 -0.000322622 0)
(-0.000124495 -0.000338573 0)
(-0.000127366 -0.000354895 0)
(-0.000130226 -0.000371587 0)
(-0.000133075 -0.000388647 0)
(-0.000135915 -0.000406073 0)
(-0.000138744 -0.000423865 0)
(-0.000141563 -0.000442022 0)
(-0.000144372 -0.000460542 0)
(-0.00014717 -0.000479423 0)
(-0.000149958 -0.000498666 0)
(-0.000152736 -0.000518267 0)
(-0.000155503 -0.000538226 0)
(-0.000158261 -0.000558541 0)
(-0.000161007 -0.000579212 0)
(-0.000163744 -0.000600236 0)
(-0.00016647 -0.000621613 0)
(-0.000169186 -0.000643341 0)
(-0.000171892 -0.000665419 0)
(-0.000174587 -0.000687845 0)
(-0.000177272 -0.000710618 0)
(-0.000179947 -0.000733737 0)
(-0.000182611 -0.0007572 0)
(-0.000185265 -0.000781007 0)
(-0.000187909 -0.000805156 0)
(-0.000190543 -0.000829644 0)
(-0.000193166 -0.000854473 0)
(-0.00019578 -0.000879639 0)
(-0.000198382 -0.000905141 0)
(-0.000200975 -0.000930979 0)
(-0.000203557 -0.00095715 0)
(-0.000206129 -0.000983654 0)
(-0.000208691 -0.00101049 0)
(-0.000211242 -0.00103766 0)
(-0.000213783 -0.00106515 0)
(-0.000216312 -0.00109297 0)
(-0.000218833 -0.00112111 0)
(-0.000221338 -0.00114958 0)
(-0.000223837 -0.00117838 0)
(-0.000226327 -0.0012075 0)
(-0.000228806 -0.00123693 0)
(-0.000231276 -0.00126669 0)
(-0.000233735 -0.00129676 0)
(-0.000236184 -0.00132715 0)
(-0.000238622 -0.00135786 0)
(-0.00024105 -0.00138888 0)
(-0.000243467 -0.00142021 0)
(-0.000245874 -0.00145185 0)
(-0.000248271 -0.00148381 0)
(-0.000250658 -0.00151607 0)
(-0.000253035 -0.00154864 0)
(-0.000255401 -0.00158152 0)
(-0.000257757 -0.0016147 0)
(-0.000260102 -0.00164818 0)
(-0.000262438 -0.00168196 0)
(-0.000264763 -0.00171605 0)
(-0.000267077 -0.00175044 0)
(-0.000269382 -0.00178512 0)
(-0.000271676 -0.0018201 0)
(-0.00027396 -0.00185537 0)
(-0.000276234 -0.00189094 0)
(-0.000278497 -0.00192681 0)
(-0.00028075 -0.00196296 0)
(-0.000282993 -0.0019994 0)
(-0.000285226 -0.00203614 0)
(-0.000287448 -0.00207316 0)
(-0.00028966 -0.00211046 0)
(-0.000291862 -0.00214805 0)
(-0.000294053 -0.00218593 0)
(-0.000296235 -0.00222408 0)
(-0.000298406 -0.00226252 0)
(-0.000300566 -0.00230124 0)
(-0.000302717 -0.00234023 0)
(-0.000304857 -0.0023795 0)
(-0.000306987 -0.00241905 0)
(-0.000309106 -0.00245887 0)
(-0.000311215 -0.00249896 0)
(-0.000313314 -0.00253933 0)
(-0.000315403 -0.00257996 0)
(-0.000317481 -0.00262087 0)
(-0.000319549 -0.00266204 0)
(-0.000321607 -0.00270348 0)
(-0.000323654 -0.00274518 0)
(-0.000325692 -0.00278715 0)
(-0.000327718 -0.00282938 0)
(-0.000329735 -0.00287187 0)
(-0.000331741 -0.00291462 0)
(-0.000333738 -0.00295762 0)
(-0.000335723 -0.00300089 0)
(-0.000337699 -0.00304441 0)
(-0.000339664 -0.00308818 0)
(-0.000341619 -0.00313221 0)
(-0.000343564 -0.00317649 0)
(-0.000345498 -0.00322102 0)
(-0.000347422 -0.00326579 0)
(-0.000349336 -0.00331082 0)
(-0.000351239 -0.00335609 0)
(-0.000353133 -0.00340161 0)
(-0.000355016 -0.00344737 0)
(-0.000356888 -0.00349337 0)
(-0.000358751 -0.00353961 0)
(-0.000360603 -0.0035861 0)
(-0.000362445 -0.00363282 0)
(-0.000364276 -0.00367978 0)
(-0.000366097 -0.00372697 0)
(-0.000367908 -0.0037744 0)
(-0.000369709 -0.00382206 0)
(-0.0003715 -0.00386995 0)
(-0.00037328 -0.00391808 0)
(-0.00037505 -0.00396643 0)
(-0.000376809 -0.00401501 0)
(-0.000378559 -0.00406382 0)
(-0.000380298 -0.00411285 0)
(-0.000382027 -0.0041621 0)
(-0.000383746 -0.00421158 0)
(-0.000385455 -0.00426128 0)
(-0.000387153 -0.0043112 0)
(-0.000388842 -0.00436134 0)
(-0.00039052 -0.00441169 0)
(-0.000392187 -0.00446226 0)
(-0.000393844 -0.00451305 0)
(-0.000395491 -0.00456405 0)
(-0.000397127 -0.00461525 0)
(-0.000398753 -0.00466667 0)
(-0.000400369 -0.0047183 0)
(-0.000401974 -0.00477014 0)
(-0.000403569 -0.00482219 0)
(-0.000405154 -0.00487443 0)
(-0.000406728 -0.00492689 0)
(-0.000408292 -0.00497954 0)
(-0.000409846 -0.0050324 0)
(-0.000411389 -0.00508545 0)
(-0.000412923 -0.00513871 0)
(-0.000414445 -0.00519216 0)
(-0.000415958 -0.00524581 0)
(-0.00041746 -0.00529965 0)
(-0.000418952 -0.00535369 0)
(-0.000420434 -0.00540791 0)
(-0.000421905 -0.00546233 0)
(-0.000423366 -0.00551694 0)
(-0.000424817 -0.00557173 0)
(-0.000426257 -0.00562671 0)
(-0.000427688 -0.00568188 0)
(-0.000429108 -0.00573723 0)
(-0.000430517 -0.00579276 0)
(-0.000431917 -0.00584848 0)
(-0.000433306 -0.00590437 0)
(-0.000434685 -0.00596044 0)
(-0.000436053 -0.00601669 0)
(-0.000437411 -0.00607312 0)
(-0.000438759 -0.00612972 0)
(-0.000440097 -0.00618649 0)
(-0.000441424 -0.00624344 0)
(-0.000442741 -0.00630056 0)
(-0.000444048 -0.00635784 0)
(-0.000445344 -0.0064153 0)
(-0.00044663 -0.00647292 0)
(-0.000447906 -0.0065307 0)
(-0.000449172 -0.00658865 0)
(-0.000450427 -0.00664676 0)
(-0.000451672 -0.00670504 0)
(-0.000452907 -0.00676347 0)
(-0.000454132 -0.00682206 0)
(-0.000455346 -0.00688081 0)
(-0.00045655 -0.00693972 0)
(-0.000457744 -0.00699878 0)
(-0.000458927 -0.00705799 0)
(-0.0004601 -0.00711735 0)
(-0.000461263 -0.00717687 0)
(-0.000462416 -0.00723654 0)
(-0.000463558 -0.00729635 0)
(-0.00046469 -0.00735631 0)
(-0.000465812 -0.00741641 0)
(-0.000466923 -0.00747666 0)
(-0.000468024 -0.00753706 0)
(-0.000469115 -0.00759759 0)
(-0.000470196 -0.00765826 0)
(-0.000471266 -0.00771908 0)
(-0.000472326 -0.00778003 0)
(-0.000473376 -0.00784111 0)
(-0.000474415 -0.00790234 0)
(-0.000475444 -0.00796369 0)
(-0.000476463 -0.00802518 0)
(-0.000477472 -0.00808679 0)
(-0.00047847 -0.00814854 0)
(-0.000479458 -0.00821042 0)
(-0.000480436 -0.00827242 0)
(-0.000481403 -0.00833454 0)
(-0.00048236 -0.0083968 0)
(-0.000483307 -0.00845917 0)
(-0.000484244 -0.00852167 0)
(-0.00048517 -0.00858428 0)
(-0.000486086 -0.00864702 0)
(-0.000486991 -0.00870987 0)
(-0.000487887 -0.00877284 0)
(-0.000488772 -0.00883592 0)
(-0.000489647 -0.00889912 0)
(-0.000490511 -0.00896243 0)
(-0.000491365 -0.00902585 0)
(-0.000492209 -0.00908938 0)
(-0.000493043 -0.00915302 0)
(-0.000493866 -0.00921676 0)
(-0.000494679 -0.00928061 0)
(-0.000495482 -0.00934457 0)
(-0.000496275 -0.00940862 0)
(-0.000497057 -0.00947278 0)
(-0.000497829 -0.00953704 0)
(-0.00049859 -0.0096014 0)
(-0.000499342 -0.00966586 0)
(-0.000500083 -0.00973041 0)
(-0.000500813 -0.00979506 0)
(-0.000501534 -0.0098598 0)
(-0.000502244 -0.00992463 0)
(-0.000502944 -0.00998955 0)
(-0.000503633 -0.0100546 0)
(-0.000504313 -0.0101197 0)
(-0.000504981 -0.0101849 0)
(-0.00050564 -0.0102501 0)
(-0.000506288 -0.0103155 0)
(-0.000506927 -0.0103809 0)
(-0.000507554 -0.0104465 0)
(-0.000508172 -0.0105121 0)
(-0.000508779 -0.0105777 0)
(-0.000509376 -0.0106435 0)
(-0.000509962 -0.0107093 0)
(-0.000510539 -0.0107753 0)
(-0.000511105 -0.0108412 0)
(-0.00051166 -0.0109073 0)
(-0.000512206 -0.0109734 0)
(-0.000512741 -0.0110396 0)
(-0.000513266 -0.0111059 0)
(-0.00051378 -0.0111722 0)
(-0.000514284 -0.0112386 0)
(-0.000514778 -0.0113051 0)
(-0.000515262 -0.0113716 0)
(-0.000515735 -0.0114382 0)
(-0.000516198 -0.0115049 0)
(-0.000516651 -0.0115716 0)
(-0.000517094 -0.0116383 0)
(-0.000517526 -0.0117052 0)
(-0.000517948 -0.011772 0)
(-0.000518359 -0.011839 0)
(-0.000518761 -0.011906 0)
(-0.000519152 -0.011973 0)
(-0.000519533 -0.0120401 0)
(-0.000519903 -0.0121072 0)
(-0.000520263 -0.0121744 0)
(-0.000520613 -0.0122416 0)
(-0.000520953 -0.0123089 0)
(-0.000521282 -0.0123762 0)
(-0.000521601 -0.0124436 0)
(-0.000521909 -0.012511 0)
(-0.000522208 -0.0125784 0)
(-0.000522496 -0.0126459 0)
(-0.000522774 -0.0127134 0)
(-0.000523041 -0.0127809 0)
(-0.000523299 -0.0128485 0)
(-0.000523546 -0.0129161 0)
(-0.000523782 -0.0129838 0)
(-0.000524009 -0.0130514 0)
(-0.000524225 -0.0131191 0)
(-0.00052443 -0.0131869 0)
(-0.000524626 -0.0132546 0)
(-0.000524811 -0.0133224 0)
(-0.000524986 -0.0133902 0)
(-0.00052515 -0.013458 0)
(-0.000525305 -0.0135259 0)
(-0.000525449 -0.0135937 0)
(-0.000525583 -0.0136616 0)
(-0.000525706 -0.0137295 0)
(-0.00052582 -0.0137974 0)
(-0.000525923 -0.0138653 0)
(-0.000526017 -0.0139333 0)
(-0.000526101 -0.0140012 0)
(-0.000526175 -0.0140692 0)
(-0.000526241 -0.0141372 0)
(-0.000526298 -0.0142052 0)
(-0.000526348 -0.0142731 0)
(-0.000526393 -0.0143411 0)
(-0.000526429 -0.0144092 0)
(-0.000526464 -0.0144772 0)
(-1.50916e-06 -1.273e-06 0)
(-4.5308e-06 -2.75719e-06 0)
(-7.5726e-06 -4.18802e-06 0)
(-1.05433e-05 -5.76525e-06 0)
(-1.35322e-05 -7.61937e-06 0)
(-1.651e-05 -9.81907e-06 0)
(-1.94964e-05 -1.23982e-05 0)
(-2.24809e-05 -1.53742e-05 0)
(-2.54657e-05 -1.8756e-05 0)
(-2.84463e-05 -2.25474e-05 0)
(-3.1422e-05 -2.67497e-05 0)
(-3.43909e-05 -3.13628e-05 0)
(-3.73521e-05 -3.63859e-05 0)
(-4.03052e-05 -4.18177e-05 0)
(-4.32492e-05 -4.76571e-05 0)
(-4.6185e-05 -5.39023e-05 0)
(-4.91104e-05 -6.05534e-05 0)
(-5.20286e-05 -6.76044e-05 0)
(-5.49369e-05 -7.50544e-05 0)
(-5.78215e-05 -8.2914e-05 0)
(-6.07114e-05 -9.117e-05 0)
(-6.35869e-05 -9.98202e-05 0)
(-6.64556e-05 -0.000108868 0)
(-6.93136e-05 -0.00011831 0)
(-7.21625e-05 -0.000128145 0)
(-7.50015e-05 -0.000138374 0)
(-7.7831e-05 -0.000148993 0)
(-8.06509e-05 -0.000160001 0)
(-8.34611e-05 -0.000171398 0)
(-8.62617e-05 -0.000183182 0)
(-8.90527e-05 -0.000195352 0)
(-9.1834e-05 -0.000207906 0)
(-9.46058e-05 -0.000220843 0)
(-9.73679e-05 -0.000234161 0)
(-0.00010012 -0.00024786 0)
(-0.000102863 -0.000261938 0)
(-0.000105597 -0.000276393 0)
(-0.00010832 -0.000291225 0)
(-0.000111035 -0.000306432 0)
(-0.000113739 -0.000322013 0)
(-0.000116434 -0.000337966 0)
(-0.00011912 -0.000354291 0)
(-0.000121795 -0.000370985 0)
(-0.000124461 -0.000388047 0)
(-0.000127117 -0.000405475 0)
(-0.000129764 -0.000423269 0)
(-0.000132401 -0.000441428 0)
(-0.000135029 -0.00045995 0)
(-0.000137646 -0.000478834 0)
(-0.000140255 -0.000498078 0)
(-0.000142853 -0.000517682 0)
(-0.000145442 -0.000537643 0)
(-0.000148021 -0.000557961 0)
(-0.000150591 -0.000578634 0)
(-0.000153151 -0.00059966 0)
(-0.000155701 -0.000621039 0)
(-0.000158242 -0.000642769 0)
(-0.000160773 -0.000664849 0)
(-0.000163294 -0.000687277 0)
(-0.000165806 -0.000710053 0)
(-0.000168308 -0.000733174 0)
(-0.000170801 -0.000756639 0)
(-0.000173284 -0.000780448 0)
(-0.000175757 -0.000804599 0)
(-0.000178221 -0.00082909 0)
(-0.000180675 -0.00085392 0)
(-0.000183119 -0.000879088 0)
(-0.000185554 -0.000904593 0)
(-0.00018798 -0.000930433 0)
(-0.000190395 -0.000956607 0)
(-0.000192801 -0.000983113 0)
(-0.000195198 -0.00100995 0)
(-0.000197584 -0.00103712 0)
(-0.000199962 -0.00106461 0)
(-0.000202327 -0.00109244 0)
(-0.000204687 -0.00112058 0)
(-0.000207025 -0.00114905 0)
(-0.000209365 -0.00117785 0)
(-0.000211696 -0.00120697 0)
(-0.000214015 -0.00123641 0)
(-0.000216326 -0.00126617 0)
(-0.000218626 -0.00129624 0)
(-0.000220917 -0.00132664 0)
(-0.000223198 -0.00135735 0)
(-0.000225469 -0.00138837 0)
(-0.00022773 -0.0014197 0)
(-0.000229982 -0.00145135 0)
(-0.000232225 -0.0014833 0)
(-0.000234457 -0.00151557 0)
(-0.00023668 -0.00154814 0)
(-0.000238894 -0.00158102 0)
(-0.000241098 -0.0016142 0)
(-0.000243292 -0.00164768 0)
(-0.000245477 -0.00168147 0)
(-0.000247652 -0.00171556 0)
(-0.000249817 -0.00174995 0)
(-0.000251973 -0.00178463 0)
(-0.000254119 -0.00181962 0)
(-0.000256256 -0.00185489 0)
(-0.000258383 -0.00189047 0)
(-0.0002605 -0.00192633 0)
(-0.000262608 -0.00196249 0)
(-0.000264706 -0.00199893 0)
(-0.000266795 -0.00203567 0)
(-0.000268874 -0.00207269 0)
(-0.000270943 -0.00211 0)
(-0.000273003 -0.00214759 0)
(-0.000275053 -0.00218546 0)
(-0.000277093 -0.00222362 0)
(-0.000279124 -0.00226206 0)
(-0.000281146 -0.00230078 0)
(-0.000283157 -0.00233978 0)
(-0.000285159 -0.00237905 0)
(-0.000287152 -0.0024186 0)
(-0.000289134 -0.00245842 0)
(-0.000291107 -0.00249852 0)
(-0.000293071 -0.00253889 0)
(-0.000295025 -0.00257953 0)
(-0.000296969 -0.00262043 0)
(-0.000298904 -0.00266161 0)
(-0.000300829 -0.00270305 0)
(-0.000302744 -0.00274475 0)
(-0.00030465 -0.00278672 0)
(-0.000306546 -0.00282895 0)
(-0.000308432 -0.00287144 0)
(-0.000310309 -0.00291419 0)
(-0.000312177 -0.0029572 0)
(-0.000314034 -0.00300047 0)
(-0.000315882 -0.00304399 0)
(-0.000317721 -0.00308777 0)
(-0.00031955 -0.0031318 0)
(-0.000321369 -0.00317608 0)
(-0.000323178 -0.00322061 0)
(-0.000324978 -0.00326539 0)
(-0.000326769 -0.00331042 0)
(-0.000328549 -0.00335569 0)
(-0.000330321 -0.00340121 0)
(-0.000332082 -0.00344697 0)
(-0.000333834 -0.00349298 0)
(-0.000335576 -0.00353922 0)
(-0.000337309 -0.00358571 0)
(-0.000339032 -0.00363243 0)
(-0.000340745 -0.00367939 0)
(-0.000342449 -0.00372659 0)
(-0.000344143 -0.00377402 0)
(-0.000345828 -0.00382168 0)
(-0.000347502 -0.00386958 0)
(-0.000349168 -0.0039177 0)
(-0.000350823 -0.00396606 0)
(-0.00035247 -0.00401464 0)
(-0.000354106 -0.00406345 0)
(-0.000355733 -0.00411248 0)
(-0.000357351 -0.00416174 0)
(-0.000358958 -0.00421122 0)
(-0.000360557 -0.00426092 0)
(-0.000362146 -0.00431084 0)
(-0.000363726 -0.00436098 0)
(-0.000365295 -0.00441134 0)
(-0.000366855 -0.00446191 0)
(-0.000368405 -0.0045127 0)
(-0.000369946 -0.0045637 0)
(-0.000371477 -0.00461491 0)
(-0.000372998 -0.00466633 0)
(-0.000374509 -0.00471796 0)
(-0.000376011 -0.0047698 0)
(-0.000377503 -0.00482185 0)
(-0.000378985 -0.0048741 0)
(-0.000380458 -0.00492656 0)
(-0.000381921 -0.00497921 0)
(-0.000383375 -0.00503207 0)
(-0.000384819 -0.00508513 0)
(-0.000386253 -0.00513839 0)
(-0.000387678 -0.00519184 0)
(-0.000389093 -0.00524549 0)
(-0.000390498 -0.00529934 0)
(-0.000391894 -0.00535337 0)
(-0.00039328 -0.0054076 0)
(-0.000394656 -0.00546202 0)
(-0.000396023 -0.00551663 0)
(-0.00039738 -0.00557143 0)
(-0.000398728 -0.00562641 0)
(-0.000400066 -0.00568158 0)
(-0.000401394 -0.00573693 0)
(-0.000402713 -0.00579247 0)
(-0.000404022 -0.00584818 0)
(-0.000405321 -0.00590408 0)
(-0.000406611 -0.00596015 0)
(-0.000407891 -0.00601641 0)
(-0.000409162 -0.00607283 0)
(-0.000410423 -0.00612944 0)
(-0.000411674 -0.00618621 0)
(-0.000412915 -0.00624316 0)
(-0.000414148 -0.00630028 0)
(-0.00041537 -0.00635757 0)
(-0.000416583 -0.00641502 0)
(-0.000417786 -0.00647265 0)
(-0.00041898 -0.00653043 0)
(-0.000420164 -0.00658838 0)
(-0.000421338 -0.0066465 0)
(-0.000422503 -0.00670477 0)
(-0.000423658 -0.00676321 0)
(-0.000424803 -0.0068218 0)
(-0.000425939 -0.00688055 0)
(-0.000427066 -0.00693946 0)
(-0.000428182 -0.00699852 0)
(-0.000429289 -0.00705774 0)
(-0.000430387 -0.00711711 0)
(-0.000431475 -0.00717663 0)
(-0.000432553 -0.00723629 0)
(-0.000433621 -0.00729611 0)
(-0.00043468 -0.00735607 0)
(-0.00043573 -0.00741618 0)
(-0.00043677 -0.00747643 0)
(-0.0004378 -0.00753683 0)
(-0.00043882 -0.00759736 0)
(-0.000439831 -0.00765804 0)
(-0.000440832 -0.00771885 0)
(-0.000441824 -0.00777981 0)
(-0.000442806 -0.00784089 0)
(-0.000443778 -0.00790212 0)
(-0.000444741 -0.00796347 0)
(-0.000445694 -0.00802496 0)
(-0.000446638 -0.00808658 0)
(-0.000447572 -0.00814833 0)
(-0.000448496 -0.00821021 0)
(-0.000449411 -0.00827221 0)
(-0.000450316 -0.00833434 0)
(-0.000451211 -0.0083966 0)
(-0.000452097 -0.00845897 0)
(-0.000452973 -0.00852147 0)
(-0.000453839 -0.00858409 0)
(-0.000454696 -0.00864682 0)
(-0.000455543 -0.00870968 0)
(-0.000456381 -0.00877265 0)
(-0.000457209 -0.00883574 0)
(-0.000458027 -0.00889894 0)
(-0.000458836 -0.00896225 0)
(-0.000459635 -0.00902567 0)
(-0.000460425 -0.0090892 0)
(-0.000461204 -0.00915284 0)
(-0.000461975 -0.00921659 0)
(-0.000462735 -0.00928044 0)
(-0.000463486 -0.0093444 0)
(-0.000464228 -0.00940846 0)
(-0.000464959 -0.00947262 0)
(-0.000465681 -0.00953688 0)
(-0.000466394 -0.00960124 0)
(-0.000467097 -0.0096657 0)
(-0.00046779 -0.00973025 0)
(-0.000468473 -0.0097949 0)
(-0.000469147 -0.00985965 0)
(-0.000469812 -0.00992448 0)
(-0.000470466 -0.00998941 0)
(-0.000471111 -0.0100544 0)
(-0.000471747 -0.0101195 0)
(-0.000472373 -0.0101847 0)
(-0.000472989 -0.01025 0)
(-0.000473595 -0.0103154 0)
(-0.000474192 -0.0103808 0)
(-0.000474779 -0.0104463 0)
(-0.000475357 -0.0105119 0)
(-0.000475925 -0.0105776 0)
(-0.000476483 -0.0106434 0)
(-0.000477032 -0.0107092 0)
(-0.000477571 -0.0107751 0)
(-0.000478101 -0.0108411 0)
(-0.00047862 -0.0109072 0)
(-0.000479131 -0.0109733 0)
(-0.000479631 -0.0110395 0)
(-0.000480122 -0.0111058 0)
(-0.000480604 -0.0111721 0)
(-0.000481075 -0.0112385 0)
(-0.000481537 -0.011305 0)
(-0.00048199 -0.0113715 0)
(-0.000482433 -0.0114381 0)
(-0.000482866 -0.0115048 0)
(-0.000483289 -0.0115715 0)
(-0.000483703 -0.0116382 0)
(-0.000484108 -0.0117051 0)
(-0.000484502 -0.011772 0)
(-0.000484887 -0.0118389 0)
(-0.000485263 -0.0119059 0)
(-0.000485629 -0.0119729 0)
(-0.000485985 -0.01204 0)
(-0.000486331 -0.0121071 0)
(-0.000486668 -0.0121743 0)
(-0.000486996 -0.0122415 0)
(-0.000487313 -0.0123088 0)
(-0.000487621 -0.0123761 0)
(-0.00048792 -0.0124435 0)
(-0.000488208 -0.0125109 0)
(-0.000488488 -0.0125783 0)
(-0.000488757 -0.0126458 0)
(-0.000489017 -0.0127133 0)
(-0.000489267 -0.0127809 0)
(-0.000489508 -0.0128484 0)
(-0.000489739 -0.0129161 0)
(-0.00048996 -0.0129837 0)
(-0.000490172 -0.0130514 0)
(-0.000490374 -0.0131191 0)
(-0.000490567 -0.0131868 0)
(-0.000490749 -0.0132546 0)
(-0.000490923 -0.0133224 0)
(-0.000491086 -0.0133902 0)
(-0.00049124 -0.013458 0)
(-0.000491385 -0.0135258 0)
(-0.000491519 -0.0135937 0)
(-0.000491645 -0.0136616 0)
(-0.00049176 -0.0137295 0)
(-0.000491866 -0.0137974 0)
(-0.000491963 -0.0138653 0)
(-0.000492051 -0.0139333 0)
(-0.000492129 -0.0140012 0)
(-0.000492198 -0.0140692 0)
(-0.000492258 -0.0141372 0)
(-0.000492311 -0.0142051 0)
(-0.000492354 -0.0142731 0)
(-0.000492391 -0.0143411 0)
(-0.000492417 -0.0144092 0)
(-0.000492435 -0.0144772 0)
(-1.26476e-06 -8.84848e-07 0)
(-4.03189e-06 -2.19272e-06 0)
(-6.88181e-06 -3.58525e-06 0)
(-9.69066e-06 -5.15115e-06 0)
(-1.25064e-05 -7.00368e-06 0)
(-1.53035e-05 -9.20379e-06 0)
(-1.81002e-05 -1.17835e-05 0)
(-2.08894e-05 -1.47605e-05 0)
(-2.36748e-05 -1.81435e-05 0)
(-2.64539e-05 -2.19362e-05 0)
(-2.92267e-05 -2.61401e-05 0)
(-3.19922e-05 -3.07549e-05 0)
(-3.47499e-05 -3.57797e-05 0)
(-3.74998e-05 -4.12134e-05 0)
(-4.02409e-05 -4.70546e-05 0)
(-4.29748e-05 -5.33017e-05 0)
(-4.56976e-05 -5.99538e-05 0)
(-4.8423e-05 -6.70077e-05 0)
(-5.11156e-05 -7.44641e-05 0)
(-5.37987e-05 -8.23226e-05 0)
(-5.64973e-05 -9.05784e-05 0)
(-5.91752e-05 -9.92316e-05 0)
(-6.18467e-05 -0.000108281 0)
(-6.45077e-05 -0.000117725 0)
(-6.71602e-05 -0.000127563 0)
(-6.98035e-05 -0.000137793 0)
(-7.24378e-05 -0.000148414 0)
(-7.50632e-05 -0.000159425 0)
(-7.76796e-05 -0.000170824 0)
(-8.02871e-05 -0.00018261 0)
(-8.28856e-05 -0.000194781 0)
(-8.54751e-05 -0.000207337 0)
(-8.80557e-05 -0.000220276 0)
(-9.06273e-05 -0.000233596 0)
(-9.319e-05 -0.000247297 0)
(-9.57438e-05 -0.000261377 0)
(-9.82886e-05 -0.000275834 0)
(-0.000100824 -0.000290668 0)
(-0.000103351 -0.000305877 0)
(-0.000105869 -0.00032146 0)
(-0.000108379 -0.000337415 0)
(-0.000110879 -0.000353741 0)
(-0.00011337 -0.000370438 0)
(-0.000115852 -0.000387502 0)
(-0.000118325 -0.000404932 0)
(-0.000120789 -0.000422728 0)
(-0.000123245 -0.000440889 0)
(-0.000125691 -0.000459413 0)
(-0.000128128 -0.000478299 0)
(-0.000130556 -0.000497545 0)
(-0.000132976 -0.00051715 0)
(-0.000135386 -0.000537114 0)
(-0.000137787 -0.000557433 0)
(-0.00014018 -0.000578108 0)
(-0.000142563 -0.000599137 0)
(-0.000144937 -0.000620517 0)
(-0.000147303 -0.000642249 0)
(-0.000149659 -0.000664331 0)
(-0.000152007 -0.000686761 0)
(-0.000154346 -0.000709539 0)
(-0.000156675 -0.000732662 0)
(-0.000158996 -0.00075613 0)
(-0.000161308 -0.00077994 0)
(-0.00016361 -0.000804093 0)
(-0.000165904 -0.000828586 0)
(-0.000168189 -0.000853418 0)
(-0.000170465 -0.000878588 0)
(-0.000172732 -0.000904095 0)
(-0.00017499 -0.000929937 0)
(-0.000177239 -0.000956113 0)
(-0.000179479 -0.000982621 0)
(-0.00018171 -0.00100946 0)
(-0.000183932 -0.00103663 0)
(-0.000186147 -0.00106413 0)
(-0.00018835 -0.00109195 0)
(-0.000190553 -0.0011201 0)
(-0.000192728 -0.00114858 0)
(-0.000194894 -0.00117738 0)
(-0.000197071 -0.0012065 0)
(-0.00019923 -0.00123594 0)
(-0.000201381 -0.0012657 0)
(-0.000203523 -0.00129577 0)
(-0.000205655 -0.00132617 0)
(-0.000207779 -0.00135688 0)
(-0.000209893 -0.0013879 0)
(-0.000211999 -0.00141924 0)
(-0.000214096 -0.00145089 0)
(-0.000216183 -0.00148285 0)
(-0.000218262 -0.00151511 0)
(-0.000220332 -0.00154768 0)
(-0.000222393 -0.00158056 0)
(-0.000224445 -0.00161375 0)
(-0.000226488 -0.00164724 0)
(-0.000228522 -0.00168103 0)
(-0.000230547 -0.00171512 0)
(-0.000232563 -0.00174951 0)
(-0.00023457 -0.00178419 0)
(-0.000236568 -0.00181918 0)
(-0.000238557 -0.00185446 0)
(-0.000240538 -0.00189003 0)
(-0.000242509 -0.0019259 0)
(-0.000244471 -0.00196205 0)
(-0.000246425 -0.0019985 0)
(-0.000248369 -0.00203524 0)
(-0.000250305 -0.00207226 0)
(-0.000252232 -0.00210957 0)
(-0.000254149 -0.00214717 0)
(-0.000256058 -0.00218505 0)
(-0.000257958 -0.00222321 0)
(-0.000259849 -0.00226165 0)
(-0.000261731 -0.00230037 0)
(-0.000263603 -0.00233937 0)
(-0.000265467 -0.00237864 0)
(-0.000267322 -0.00241819 0)
(-0.000269168 -0.00245802 0)
(-0.000271005 -0.00249812 0)
(-0.000272833 -0.00253849 0)
(-0.000274652 -0.00257913 0)
(-0.000276463 -0.00262003 0)
(-0.000278264 -0.00266121 0)
(-0.000280056 -0.00270265 0)
(-0.000281839 -0.00274436 0)
(-0.000283614 -0.00278633 0)
(-0.000285379 -0.00282856 0)
(-0.000287136 -0.00287106 0)
(-0.000288883 -0.00291381 0)
(-0.000290621 -0.00295682 0)
(-0.000292351 -0.00300009 0)
(-0.000294072 -0.00304361 0)
(-0.000295783 -0.00308739 0)
(-0.000297486 -0.00313142 0)
(-0.00029918 -0.00317571 0)
(-0.000300865 -0.00322024 0)
(-0.00030254 -0.00326502 0)
(-0.000304207 -0.00331005 0)
(-0.000305865 -0.00335533 0)
(-0.000307514 -0.00340085 0)
(-0.000309154 -0.00344661 0)
(-0.000310785 -0.00349262 0)
(-0.000312407 -0.00353887 0)
(-0.00031402 -0.00358535 0)
(-0.000315624 -0.00363208 0)
(-0.00031722 -0.00367904 0)
(-0.000318806 -0.00372624 0)
(-0.000320383 -0.00377367 0)
(-0.000321952 -0.00382134 0)
(-0.000323511 -0.00386923 0)
(-0.000325061 -0.00391736 0)
(-0.000326603 -0.00396572 0)
(-0.000328135 -0.0040143 0)
(-0.000329659 -0.00406311 0)
(-0.000331174 -0.00411215 0)
(-0.000332679 -0.00416141 0)
(-0.000334176 -0.00421089 0)
(-0.000335666 -0.0042606 0)
(-0.000337145 -0.00431052 0)
(-0.000338616 -0.00436066 0)
(-0.000340077 -0.00441102 0)
(-0.000341529 -0.00446159 0)
(-0.000342972 -0.00451238 0)
(-0.000344407 -0.00456338 0)
(-0.000345832 -0.0046146 0)
(-0.000347248 -0.00466602 0)
(-0.000348655 -0.00471766 0)
(-0.000350053 -0.0047695 0)
(-0.000351442 -0.00482155 0)
(-0.000352823 -0.0048738 0)
(-0.000354194 -0.00492626 0)
(-0.000355556 -0.00497891 0)
(-0.000356909 -0.00503177 0)
(-0.000358254 -0.00508484 0)
(-0.000359589 -0.00513809 0)
(-0.000360915 -0.00519155 0)
(-0.000362233 -0.0052452 0)
(-0.000363541 -0.00529905 0)
(-0.000364841 -0.00535309 0)
(-0.000366131 -0.00540732 0)
(-0.000367413 -0.00546174 0)
(-0.000368685 -0.00551635 0)
(-0.000369949 -0.00557115 0)
(-0.000371203 -0.00562614 0)
(-0.000372449 -0.00568131 0)
(-0.000373686 -0.00573666 0)
(-0.000374914 -0.0057922 0)
(-0.000376132 -0.00584792 0)
(-0.000377342 -0.00590381 0)
(-0.000378543 -0.00595989 0)
(-0.000379735 -0.00601615 0)
(-0.000380918 -0.00607258 0)
(-0.000382092 -0.00612918 0)
(-0.000383257 -0.00618596 0)
(-0.000384413 -0.00624291 0)
(-0.00038556 -0.00630003 0)
(-0.000386698 -0.00635732 0)
(-0.000387827 -0.00641478 0)
(-0.000388947 -0.0064724 0)
(-0.000390059 -0.00653019 0)
(-0.000391161 -0.00658814 0)
(-0.000392254 -0.00664626 0)
(-0.000393339 -0.00670454 0)
(-0.000394414 -0.00676297 0)
(-0.000395481 -0.00682157 0)
(-0.000396538 -0.00688032 0)
(-0.000397587 -0.00693923 0)
(-0.000398627 -0.0069983 0)
(-0.000399657 -0.00705751 0)
(-0.000400679 -0.00711688 0)
(-0.000401692 -0.0071764 0)
(-0.000402696 -0.00723607 0)
(-0.000403691 -0.00729589 0)
(-0.000404677 -0.00735586 0)
(-0.000405654 -0.00741597 0)
(-0.000406622 -0.00747622 0)
(-0.000407581 -0.00753662 0)
(-0.000408531 -0.00759715 0)
(-0.000409472 -0.00765783 0)
(-0.000410404 -0.00771865 0)
(-0.000411328 -0.0077796 0)
(-0.000412242 -0.00784069 0)
(-0.000413147 -0.00790192 0)
(-0.000414044 -0.00796328 0)
(-0.000414931 -0.00802477 0)
(-0.000415809 -0.00808639 0)
(-0.000416679 -0.00814814 0)
(-0.000417539 -0.00821002 0)
(-0.000418391 -0.00827203 0)
(-0.000419234 -0.00833416 0)
(-0.000420067 -0.00839641 0)
(-0.000420892 -0.00845879 0)
(-0.000421707 -0.00852129 0)
(-0.000422514 -0.00858391 0)
(-0.000423312 -0.00864665 0)
(-0.000424101 -0.00870951 0)
(-0.000424881 -0.00877248 0)
(-0.000425651 -0.00883557 0)
(-0.000426413 -0.00889877 0)
(-0.000427166 -0.00896208 0)
(-0.00042791 -0.00902551 0)
(-0.000428645 -0.00908904 0)
(-0.000429371 -0.00915268 0)
(-0.000430088 -0.00921643 0)
(-0.000430797 -0.00928029 0)
(-0.000431496 -0.00934424 0)
(-0.000432186 -0.00940831 0)
(-0.000432867 -0.00947247 0)
(-0.00043354 -0.00953673 0)
(-0.000434203 -0.0096011 0)
(-0.000434857 -0.00966556 0)
(-0.000435503 -0.00973011 0)
(-0.000436139 -0.00979476 0)
(-0.000436767 -0.00985951 0)
(-0.000437385 -0.00992435 0)
(-0.000437995 -0.00998927 0)
(-0.000438595 -0.0100543 0)
(-0.000439187 -0.0101194 0)
(-0.000439769 -0.0101846 0)
(-0.000440343 -0.0102499 0)
(-0.000440908 -0.0103152 0)
(-0.000441463 -0.0103807 0)
(-0.00044201 -0.0104462 0)
(-0.000442548 -0.0105118 0)
(-0.000443077 -0.0105775 0)
(-0.000443597 -0.0106433 0)
(-0.000444107 -0.0107091 0)
(-0.000444609 -0.010775 0)
(-0.000445102 -0.010841 0)
(-0.000445586 -0.0109071 0)
(-0.000446061 -0.0109732 0)
(-0.000446527 -0.0110394 0)
(-0.000446984 -0.0111057 0)
(-0.000447433 -0.011172 0)
(-0.000447872 -0.0112384 0)
(-0.000448302 -0.0113049 0)
(-0.000448723 -0.0113714 0)
(-0.000449136 -0.011438 0)
(-0.000449539 -0.0115047 0)
(-0.000449933 -0.0115714 0)
(-0.000450319 -0.0116382 0)
(-0.000450695 -0.011705 0)
(-0.000451063 -0.0117719 0)
(-0.000451421 -0.0118388 0)
(-0.000451771 -0.0119058 0)
(-0.000452111 -0.0119728 0)
(-0.000452443 -0.0120399 0)
(-0.000452765 -0.0121071 0)
(-0.000453079 -0.0121742 0)
(-0.000453384 -0.0122415 0)
(-0.00045368 -0.0123088 0)
(-0.000453966 -0.0123761 0)
(-0.000454244 -0.0124434 0)
(-0.000454513 -0.0125108 0)
(-0.000454773 -0.0125783 0)
(-0.000455024 -0.0126458 0)
(-0.000455266 -0.0127133 0)
(-0.000455499 -0.0127808 0)
(-0.000455723 -0.0128484 0)
(-0.000455938 -0.012916 0)
(-0.000456144 -0.0129837 0)
(-0.000456341 -0.0130513 0)
(-0.000456529 -0.013119 0)
(-0.000456709 -0.0131868 0)
(-0.000456879 -0.0132545 0)
(-0.00045704 -0.0133223 0)
(-0.000457192 -0.0133901 0)
(-0.000457336 -0.013458 0)
(-0.00045747 -0.0135258 0)
(-0.000457596 -0.0135937 0)
(-0.000457712 -0.0136616 0)
(-0.00045782 -0.0137295 0)
(-0.000457919 -0.0137974 0)
(-0.000458009 -0.0138653 0)
(-0.00045809 -0.0139333 0)
(-0.000458162 -0.0140012 0)
(-0.000458226 -0.0140692 0)
(-0.000458281 -0.0141371 0)
(-0.000458328 -0.0142051 0)
(-0.000458366 -0.0142731 0)
(-0.000458396 -0.0143411 0)
(-0.000458415 -0.0144091 0)
(-0.000458428 -0.0144772 0)
(-1.11366e-06 -5.86621e-07 0)
(-3.60483e-06 -1.70526e-06 0)
(-6.23735e-06 -3.03068e-06 0)
(-8.8601e-06 -4.57456e-06 0)
(-1.14909e-05 -6.42096e-06 0)
(-1.41019e-05 -8.62042e-06 0)
(-1.6707e-05 -1.1201e-05 0)
(-1.93006e-05 -1.41797e-05 0)
(-2.18871e-05 -1.75644e-05 0)
(-2.4465e-05 -2.1359e-05 0)
(-2.70355e-05 -2.55647e-05 0)
(-2.9598e-05 -3.01813e-05 0)
(-3.21525e-05 -3.5208e-05 0)
(-3.46993e-05 -4.06436e-05 0)
(-3.72375e-05 -4.64865e-05 0)
(-3.97685e-05 -5.27356e-05 0)
(-4.22892e-05 -5.93886e-05 0)
(-4.48056e-05 -6.64464e-05 0)
(-4.72998e-05 -7.39079e-05 0)
(-4.97985e-05 -8.17639e-05 0)
(-5.22898e-05 -9.00205e-05 0)
(-5.47704e-05 -9.86764e-05 0)
(-5.72435e-05 -0.000107727 0)
(-5.97075e-05 -0.000117174 0)
(-6.21635e-05 -0.000127013 0)
(-6.46109e-05 -0.000137245 0)
(-6.70502e-05 -0.000147868 0)
(-6.9481e-05 -0.000158881 0)
(-7.19036e-05 -0.000170282 0)
(-7.43179e-05 -0.00018207 0)
(-7.6724e-05 -0.000194243 0)
(-7.91217e-05 -0.000206801 0)
(-8.15111e-05 -0.000219741 0)
(-8.38922e-05 -0.000233064 0)
(-8.62651e-05 -0.000246766 0)
(-8.86296e-05 -0.000260848 0)
(-9.09859e-05 -0.000275307 0)
(-9.33339e-05 -0.000290143 0)
(-9.56737e-05 -0.000305354 0)
(-9.80052e-05 -0.000320938 0)
(-0.000100328 -0.000336895 0)
(-0.000102644 -0.000353223 0)
(-0.00010495 -0.000369922 0)
(-0.000107249 -0.000386988 0)
(-0.000109538 -0.00040442 0)
(-0.00011182 -0.000422218 0)
(-0.000114094 -0.00044038 0)
(-0.000116359 -0.000458906 0)
(-0.000118615 -0.000477794 0)
(-0.000120864 -0.000497042 0)