/*--------------------------------*- C++ -*----------------------------------*\
| =========                 |                                                 |
| \\      /  F ield         | foam-extend: Open Source CFD                    |
|  \\    /   O peration     | Version:     4.0                                |
|   \\  /    A nd           | Web:         http://www.foam-extend.org         |
|    \\/     M anipulation  |                                                 |
\*---------------------------------------------------------------------------*/
FoamFile
{
    version     2.0;
    format      ascii;
    class       volScalarField;
    location    "1";
    object      epsilonEq;
}
// * * * * * * * * * * * * * * * * * * * * * * * * * * * * * * * * * * * * * //

dimensions      [0 0 0 0 0 0 0];

internalField   nonuniform List<scalar> 
10240
(
0.000475097
0.000426857
0.000426158
0.000422869
0.000426441
0.000427976
0.000429694
0.000430297
0.000430453
0.000430053
0.000429352
0.000428392
0.000427294
0.000426069
0.000424814
0.000423455
0.000422043
0.000420748
0.000418971
0.000417507
0.000416393
0.000415009
0.000413741
0.000412327
0.000410962
0.000409562
0.000408176
0.000406782
0.000405392
0.000404001
0.000402611
0.000401221
0.000399832
0.000398444
0.000397057
0.00039567
0.000394286
0.000392901
0.000391517
0.00039013
0.000388734
0.000387334
0.000385905
0.000384494
0.000383145
0.000381777
0.000380383
0.00037899
0.00037759
0.000376193
0.000374796
0.000373402
0.000372009
0.000370617
0.000369226
0.000367835
0.000366444
0.000365054
0.000363664
0.000362274
0.000360884
0.000359493
0.000358103
0.000356713
0.000355323
0.000353933
0.000352543
0.000351152
0.000349763
0.000348368
0.000346983
0.000345568
0.000344192
0.000342695
0.000341293
0.000339669
0.000338334
0.000337274
0.000335826
0.00033451
0.000333157
0.0003317
0.000330287
0.000328884
0.000327493
0.000326106
0.000324721
0.000323334
0.000321946
0.000320555
0.000319164
0.000317774
0.000316386
0.000314995
0.00031361
0.000312213
0.000310816
0.000309447
0.000308061
0.000306665
0.000305277
0.000303885
0.000302496
0.000301107
0.000299718
0.000298331
0.000296944
0.000295557
0.000294169
0.000292779
0.000291386
0.000289993
0.0002886
0.000287208
0.000285816
0.000284425
0.000283034
0.000281644
0.000280254
0.000278865
0.000277475
0.000276085
0.000274696
0.000273306
0.000271916
0.000270526
0.000269136
0.000267746
0.000266356
0.000264966
0.000263575
0.000262185
0.000260794
0.000259404
0.000258014
0.000256624
0.000255234
0.000253844
0.000252454
0.000251065
0.000249675
0.000248285
0.000246895
0.000245505
0.000244116
0.000242725
0.000241337
0.000239948
0.000238564
0.000237184
0.000235806
0.000234452
0.000233049
0.000231639
0.000230282
0.000228941
0.000227547
0.000226098
0.000224664
0.000223302
0.00022193
0.00022051
0.00021911
0.000217707
0.000216309
0.000214914
0.000213521
0.000212129
0.000210737
0.000209346
0.000207954
0.000206562
0.000205169
0.000203776
0.000202382
0.000200988
0.000199593
0.000198198
0.000196806
0.000195415
0.000194034
0.000192659
0.000191262
0.000189859
0.000188466
0.000187076
0.000185685
0.000184293
0.000182902
0.000181511
0.000180121
0.000178731
0.000177342
0.000175952
0.000174563
0.000173174
0.000171785
0.000170396
0.000169006
0.000167616
0.000166226
0.000164837
0.000163448
0.000162059
0.000160671
0.000159282
0.000157893
0.000156503
0.000155112
0.000153721
0.000152331
0.000150942
0.000149555
0.000148168
0.000146779
0.000145386
0.000143992
0.000142591
0.000141194
0.000139815
0.000138431
0.000137041
0.00013565
0.000134256
0.000132864
0.000131471
0.00013008
0.000128688
0.000127297
0.000125906
0.000124514
0.000123124
0.000121733
0.000120343
0.000118952
0.000117562
0.000116171
0.00011478
0.00011339
0.000111999
0.000110608
0.000109216
0.000107825
0.000106433
0.000105041
0.00010365
0.000102259
0.000100867
9.94761e-05
9.8085e-05
9.66937e-05
9.53019e-05
9.39098e-05
9.25178e-05
9.11262e-05
8.97352e-05
8.83447e-05
8.69545e-05
8.55631e-05
8.41693e-05
8.27754e-05
8.13819e-05
7.99893e-05
7.85976e-05
7.72064e-05
7.58155e-05
7.44244e-05
7.30337e-05
7.1643e-05
7.02526e-05
6.88621e-05
6.74714e-05
6.60803e-05
6.46892e-05
6.32983e-05
6.19071e-05
6.0516e-05
5.91245e-05
5.77328e-05
5.63409e-05
5.4949e-05
5.35574e-05
5.21661e-05
5.07753e-05
4.93848e-05
4.79943e-05
4.66036e-05
4.52127e-05
4.38216e-05
4.24305e-05
4.1039e-05
3.96477e-05
3.82564e-05
3.68647e-05
3.54738e-05
3.40829e-05
3.26923e-05
3.13012e-05
2.99085e-05
2.8516e-05
2.71247e-05
2.57338e-05
2.43436e-05
2.29543e-05
2.15658e-05
2.01786e-05
1.8794e-05
1.7414e-05
1.60406e-05
1.46768e-05
1.33294e-05
1.20054e-05
1.07221e-05
9.48704e-06
8.3378e-06
7.26297e-06
6.35573e-06
5.42938e-06
4.81832e-06
4.05722e-06
0.000403571
0.000406752
0.000405734
0.000403603
0.00040441
0.000404396
0.00040486
0.000404744
0.000404458
0.00040383
0.000403023
0.000402038
0.00040096
0.000399789
0.00039861
0.000397356
0.00039619
0.000394975
0.000392596
0.000391453
0.000390883
0.000389424
0.000388228
0.000386886
0.000385599
0.000384286
0.000382984
0.000381676
0.000380372
0.000379067
0.000377763
0.000376459
0.000375156
0.000373853
0.000372551
0.00037125
0.00036995
0.00036865
0.000367351
0.000366051
0.000364746
0.00036344
0.000362103
0.000360772
0.000359507
0.000358217
0.000356904
0.000355596
0.000354283
0.000352973
0.000351664
0.000350356
0.00034905
0.000347744
0.000346439
0.000345134
0.00034383
0.000342525
0.000341221
0.000339916
0.000338612
0.000337308
0.000336003
0.000334699
0.000333395
0.00033209
0.000330786
0.000329481
0.000328178
0.00032687
0.000325571
0.000324249
0.000322972
0.000321574
0.000320392
0.000318483
0.000317038
0.000316616
0.000315256
0.000313886
0.000312601
0.000311224
0.000309902
0.000308592
0.000307287
0.000305985
0.000304684
0.000303383
0.000302079
0.000300773
0.000299468
0.000298162
0.00029686
0.000295555
0.000294257
0.000292948
0.000291636
0.000290355
0.000289053
0.000287742
0.000286441
0.000285135
0.000283831
0.000282528
0.000281224
0.000279922
0.00027862
0.000277318
0.000276016
0.000274711
0.000273405
0.000272098
0.000270791
0.000269485
0.00026818
0.000266875
0.00026557
0.000264266
0.000262962
0.000261658
0.000260354
0.00025905
0.000257746
0.000256442
0.000255138
0.000253834
0.00025253
0.000251226
0.000249921
0.000248617
0.000247312
0.000246008
0.000244704
0.000243399
0.000242095
0.000240791
0.000239487
0.000238183
0.000236879
0.000235575
0.000234271
0.000232967
0.000231663
0.000230358
0.000229054
0.00022775
0.000226447
0.000225142
0.000223842
0.000222543
0.000221246
0.00021998
0.000218663
0.000217358
0.000216106
0.000214821
0.000213508
0.000212159
0.000210827
0.000209533
0.000208231
0.000206898
0.000205586
0.000204273
0.000202963
0.000201656
0.000200349
0.000199043
0.000197738
0.000196432
0.000195127
0.000193821
0.000192515
0.000191208
0.000189901
0.000188593
0.000187285
0.000185976
0.00018467
0.000183362
0.000182063
0.000180773
0.000179461
0.000178145
0.000176841
0.000175538
0.000174233
0.000172927
0.000171622
0.000170318
0.000169014
0.00016771
0.000166406
0.000165103
0.0001638
0.000162497
0.000161193
0.000159889
0.000158585
0.000157281
0.000155978
0.000154674
0.000153371
0.000152068
0.000150765
0.000149462
0.000148159
0.000146855
0.00014555
0.000144245
0.000142941
0.000141637
0.000140336
0.000139035
0.000137732
0.000136427
0.000135121
0.000133806
0.000132495
0.000131201
0.000129901
0.000128595
0.00012729
0.000125982
0.000124676
0.00012337
0.000122065
0.000120759
0.000119454
0.000118149
0.000116844
0.00011554
0.000114235
0.00011293
0.000111626
0.000110321
0.000109017
0.000107712
0.000106407
0.000105103
0.000103798
0.000102492
0.000101187
9.98816e-05
9.85764e-05
9.72712e-05
9.59658e-05
9.46605e-05
9.33553e-05
9.20501e-05
9.07447e-05
8.9439e-05
8.81331e-05
8.68276e-05
8.55223e-05
8.42176e-05
8.2913e-05
8.16088e-05
8.03039e-05
7.89965e-05
7.76894e-05
7.63828e-05
7.50768e-05
7.37716e-05
7.24666e-05
7.1162e-05
6.98572e-05
6.85529e-05
6.72486e-05
6.59443e-05
6.46399e-05
6.33356e-05
6.20312e-05
6.07266e-05
5.94223e-05
5.81178e-05
5.68132e-05
5.55083e-05
5.42034e-05
5.28985e-05
5.15936e-05
5.02888e-05
4.89844e-05
4.76806e-05
4.63768e-05
4.50731e-05
4.37694e-05
4.24656e-05
4.11618e-05
3.98579e-05
3.85541e-05
3.72502e-05
3.59464e-05
3.46426e-05
3.33396e-05
3.20368e-05
3.07347e-05
2.94322e-05
2.81286e-05
2.68259e-05
2.5524e-05
2.42232e-05
2.29234e-05
2.16246e-05
2.0327e-05
1.90313e-05
1.77383e-05
1.64494e-05
1.51667e-05
1.38915e-05
1.26286e-05
1.13805e-05
1.01579e-05
8.95966e-06
7.80404e-06
6.66568e-06
5.59298e-06
4.48505e-06
3.89643e-06
5.59273e-06
0.000342046
0.000370791
0.000379154
0.000379768
0.000379762
0.000378809
0.000378295
0.00037751
0.000376767
0.000375871
0.000374919
0.000373877
0.000372799
0.00037166
0.000370576
0.00036934
0.000368751
0.000366679
0.000371351
0.000364213
0.000363906
0.000362082
0.000360927
0.000359633
0.000358428
0.000357202
0.000355991
0.000354775
0.000353563
0.00035235
0.000351138
0.000349926
0.000348714
0.000347503
0.000346292
0.000345082
0.000343874
0.000342665
0.000341459
0.000340254
0.000339046
0.000337841
0.000336593
0.000335349
0.000334182
0.000332979
0.000331748
0.00033053
0.000329309
0.000328092
0.000326877
0.000325663
0.000324449
0.000323236
0.000322023
0.000320811
0.000319598
0.000318386
0.000317173
0.000315961
0.000314749
0.000313536
0.000312324
0.000311112
0.000309899
0.000308687
0.000307475
0.000306262
0.000305051
0.000303837
0.000302633
0.000301413
0.000300266
0.000299002
0.000298293
0.000296325
0.000299974
0.00029393
0.000293428
0.000291741
0.000290597
0.000289278
0.000288057
0.000286846
0.000285636
0.000284427
0.000283217
0.000282007
0.000280793
0.000279579
0.000278364
0.00027715
0.00027594
0.000274726
0.000273524
0.000272305
0.000271081
0.000269903
0.000268691
0.000267468
0.00026626
0.000265045
0.000263834
0.000262622
0.00026141
0.000260199
0.000258988
0.000257778
0.000256568
0.000255355
0.000254141
0.000252926
0.000251712
0.000250498
0.000249285
0.000248072
0.00024686
0.000245648
0.000244436
0.000243224
0.000242012
0.0002408
0.000239588
0.000238376
0.000237164
0.000235952
0.00023474
0.000233528
0.000232315
0.000231103
0.000229891
0.000228678
0.000227466
0.000226254
0.000225042
0.00022383
0.000222617
0.000221405
0.000220193
0.000218981
0.000217769
0.000216557
0.000215345
0.000214133
0.000212921
0.000211708
0.000210496
0.000209281
0.000208069
0.000206854
0.000205645
0.000204461
0.000203265
0.000202126
0.000200916
0.000199683
0.000198484
0.000197237
0.000195979
0.000194769
0.000193567
0.000192317
0.000191099
0.000189883
0.000188667
0.000187455
0.000186241
0.000185028
0.000183815
0.000182602
0.000181388
0.000180175
0.000178961
0.000177748
0.000176533
0.000175319
0.000174103
0.000172886
0.000171671
0.000170451
0.000169243
0.000168049
0.000166824
0.000165598
0.000164389
0.000163181
0.000161969
0.000160756
0.000159543
0.000158331
0.000157119
0.000155908
0.000154697
0.000153486
0.000152274
0.000151063
0.000149851
0.00014864
0.000147428
0.000146216
0.000145005
0.000143793
0.000142582
0.000141371
0.000140161
0.00013895
0.000137738
0.000136526
0.000135314
0.000134101
0.000132889
0.000131677
0.000130468
0.000129259
0.00012805
0.000126838
0.000125627
0.000124403
0.000123181
0.000121982
0.000120773
0.000119557
0.000118343
0.000117128
0.000115914
0.000114701
0.000113488
0.000112275
0.000111062
0.00010985
0.000108638
0.000107426
0.000106213
0.000105001
0.000103789
0.000102576
0.000101364
0.000100152
9.89396e-05
9.7727e-05
9.65143e-05
9.53017e-05
9.40891e-05
9.28767e-05
9.1664e-05
9.04514e-05
8.92385e-05
8.80258e-05
8.6813e-05
8.56001e-05
8.4387e-05
8.31738e-05
8.19606e-05
8.07478e-05
7.95352e-05
7.83232e-05
7.71113e-05
7.59e-05
7.46882e-05
7.34733e-05
7.22593e-05
7.1046e-05
6.98331e-05
6.8621e-05
6.74088e-05
6.61972e-05
6.49856e-05
6.37742e-05
6.25629e-05
6.13514e-05
6.01399e-05
5.89288e-05
5.77178e-05
5.65064e-05
5.52953e-05
5.40843e-05
5.28732e-05
5.1662e-05
5.04506e-05
4.92395e-05
4.80285e-05
4.68176e-05
4.56071e-05
4.43972e-05
4.31874e-05
4.19778e-05
4.07685e-05
3.95592e-05
3.835e-05
3.7141e-05
3.59323e-05
3.47236e-05
3.35152e-05
3.23071e-05
3.11e-05
2.98936e-05
2.86887e-05
2.74839e-05
2.62775e-05
2.50733e-05
2.38705e-05
2.26691e-05
2.14696e-05
2.02717e-05
1.90755e-05
1.78821e-05
1.66919e-05
1.55056e-05
1.43252e-05
1.315e-05
1.19826e-05
1.08215e-05
9.67316e-06
8.53094e-06
7.40538e-06
6.28158e-06
5.24071e-06
4.3875e-06
4.58386e-06
6.85984e-06
0.0002943
0.000333623
0.000350143
0.000353972
0.000354627
0.000353525
0.000352482
0.000351231
0.000350114
0.000348971
0.00034787
0.000346757
0.000345658
0.000344534
0.000343453
0.000342248
0.000341267
0.000339443
0.000338179
0.000338053
0.000336862
0.000335626
0.00033449
0.000333323
0.000332198
0.000331064
0.000329941
0.000328815
0.000327691
0.000326567
0.000325443
0.00032432
0.000323197
0.000322074
0.000320952
0.000319829
0.000318709
0.000317588
0.000316473
0.000315359
0.000314248
0.000313144
0.000311979
0.000310802
0.000309737
0.000308629
0.000307472
0.000306341
0.000305208
0.000304082
0.000302957
0.000301833
0.000300709
0.000299586
0.000298462
0.000297339
0.000296215
0.000295092
0.000293968
0.000292844
0.000291721
0.000290597
0.000289474
0.00028835
0.000287227
0.000286103
0.00028498
0.000283856
0.000282734
0.00028161
0.000280494
0.000279369
0.000278281
0.00027716
0.000276129
0.000275034
0.000273103
0.0002721
0.000271517
0.000270314
0.000269302
0.000268097
0.000266965
0.000265861
0.000264742
0.000263624
0.000262503
0.000261381
0.000260255
0.000259128
0.000258001
0.000256874
0.000255752
0.000254628
0.000253519
0.000252385
0.000251247
0.000250171
0.000249046
0.000247905
0.000246788
0.000245661
0.000244538
0.000243415
0.000242291
0.000241169
0.000240046
0.000238925
0.000237804
0.00023668
0.000235554
0.000234428
0.000233302
0.000232178
0.000231054
0.00022993
0.000228807
0.000227684
0.000226561
0.000225438
0.000224315
0.000223192
0.000222069
0.000220946
0.000219823
0.000218699
0.000217576
0.000216453
0.000215329
0.000214206
0.000213083
0.000211959
0.000210836
0.000209713
0.000208589
0.000207466
0.000206343
0.00020522
0.000204096
0.000202973
0.00020185
0.000200727
0.000199603
0.00019848
0.000197356
0.000196232
0.000195108
0.00019398
0.000192855
0.000191718
0.000190599
0.000189497
0.00018837
0.000187389
0.0001863
0.000185086
0.000183968
0.000182839
0.000181723
0.000180536
0.000179402
0.000178249
0.000177122
0.000176002
0.000174878
0.000173757
0.000172633
0.00017151
0.000170386
0.000169262
0.000168138
0.000167014
0.00016589
0.000164766
0.000163641
0.000162516
0.000161391
0.000160262
0.000159134
0.000157999
0.000156878
0.000155778
0.000154639
0.000153497
0.000152381
0.000151266
0.000150144
0.000149019
0.000147896
0.000146772
0.00014565
0.000144528
0.000143406
0.000142284
0.000141162
0.00014004
0.000138917
0.000137794
0.000136671
0.000135548
0.000134426
0.000133303
0.000132182
0.00013106
0.000129938
0.000128816
0.000127694
0.000126571
0.000125448
0.000124324
0.0001232
0.000122077
0.000120957
0.000119838
0.000118719
0.000117599
0.000116479
0.000115342
0.000114205
0.000113099
0.00011198
0.000110849
0.000109724
0.000108597
0.000107473
0.000106349
0.000105226
0.000104103
0.00010298
0.000101857
0.000100734
9.96112e-05
9.84882e-05
9.73651e-05
9.62422e-05
9.51193e-05
9.39966e-05
9.28737e-05
9.17507e-05
9.06274e-05
8.95042e-05
8.83812e-05
8.72583e-05
8.61355e-05
8.50126e-05
8.38895e-05
8.27663e-05
8.16432e-05
8.052e-05
7.93965e-05
7.82729e-05
7.71494e-05
7.60259e-05
7.49028e-05
7.37798e-05
7.26577e-05
7.15357e-05
7.0415e-05
6.92936e-05
6.81681e-05
6.7044e-05
6.59212e-05
6.47985e-05
6.36769e-05
6.25549e-05
6.14337e-05
6.03125e-05
5.91914e-05
5.80702e-05
5.6949e-05
5.5828e-05
5.47074e-05
5.35871e-05
5.24664e-05
5.1346e-05
5.02261e-05
4.91061e-05
4.7986e-05
4.68659e-05
4.57461e-05
4.46266e-05
4.35074e-05
4.23884e-05
4.12704e-05
4.01526e-05
3.90353e-05
3.79184e-05
3.68016e-05
3.56853e-05
3.45694e-05
3.34541e-05
3.23391e-05
3.12247e-05
3.0111e-05
2.89988e-05
2.78874e-05
2.67792e-05
2.56717e-05
2.4562e-05
2.34557e-05
2.23521e-05
2.12507e-05
2.01521e-05
1.90562e-05
1.7963e-05
1.68734e-05
1.57879e-05
1.47072e-05
1.36328e-05
1.25619e-05
1.14957e-05
1.04307e-05
9.3722e-06
8.31478e-06
7.27497e-06
6.26863e-06
5.4413e-06
5.01557e-06
5.69117e-06
7.69638e-06
0.000254288
0.000297455
0.000319481
0.000326164
0.000327969
0.000327108
0.00032585
0.000324307
0.000322909
0.000321564
0.000320331
0.000319151
0.000318032
0.000316926
0.000315871
0.000314748
0.000313692
0.000312449
0.000311442
0.000310646
0.000309615
0.000308609
0.000307579
0.000306519
0.000305484
0.000304442
0.000303408
0.000302373
0.00030134
0.000300306
0.000299273
0.00029824
0.000297207
0.000296174
0.000295141
0.000294109
0.000293078
0.000292047
0.000291024
0.000290001
0.00028899
0.000287986
0.000286909
0.000285827
0.000284849
0.000283823
0.000282744
0.000281702
0.000280662
0.000279627
0.000278595
0.000277562
0.000276531
0.000275498
0.000274466
0.000273433
0.0002724
0.000271367
0.000270334
0.000269301
0.000268268
0.000267235
0.000266202
0.000265169
0.000264136
0.000263103
0.00026207
0.000261037
0.000260006
0.000258972
0.000257947
0.000256914
0.000255902
0.000254862
0.000253803
0.000252753
0.000251504
0.000250447
0.000249546
0.000248559
0.00024762
0.000246524
0.000245492
0.000244491
0.000243466
0.000242438
0.000241408
0.000240376
0.000239339
0.0002383
0.000237262
0.000236225
0.000235193
0.000234158
0.000233147
0.000232095
0.000231042
0.00023008
0.000229042
0.000227984
0.000226958
0.000225922
0.000224889
0.000223856
0.000222821
0.000221789
0.000220757
0.000219726
0.000218697
0.000217663
0.000216626
0.000215591
0.000214556
0.000213522
0.000212489
0.000211456
0.000210424
0.000209391
0.000208359
0.000207327
0.000206295
0.000205262
0.000204229
0.000203197
0.000202164
0.000201132
0.000200099
0.000199066
0.000198033
0.000197
0.000195968
0.000194935
0.000193902
0.000192869
0.000191837
0.000190804
0.000189771
0.000188739
0.000187706
0.000186674
0.000185641
0.000184608
0.000183576
0.000182542
0.000181509
0.000180475
0.000179441
0.000178402
0.000177366
0.000176309
0.000175269
0.000174185
0.000173091
0.00017262
0.000171537
0.000170143
0.000169194
0.000168217
0.000167182
0.000166011
0.000164987
0.00016393
0.000162891
0.000161872
0.00016084
0.000159812
0.00015878
0.000157748
0.000156715
0.000155683
0.00015465
0.000153617
0.000152584
0.000151551
0.000150518
0.000149485
0.00014845
0.000147412
0.000146374
0.000145323
0.000144295
0.000143293
0.000142234
0.000141178
0.000140158
0.00013914
0.000138109
0.000137074
0.000136041
0.000135008
0.000133977
0.000132946
0.000131915
0.000130885
0.000129853
0.000128821
0.00012779
0.000126757
0.000125725
0.000124693
0.000123661
0.000122629
0.000121598
0.000120567
0.000119537
0.000118506
0.000117474
0.000116443
0.00011541
0.000114377
0.000113342
0.000112309
0.000111282
0.000110255
0.000109227
0.0001082
0.000107176
0.000106127
0.000105072
0.000104062
0.000103037
0.000101992
0.000100957
9.99217e-05
9.88886e-05
9.78565e-05
9.68244e-05
9.57928e-05
9.4761e-05
9.37296e-05
9.26982e-05
9.16667e-05
9.06349e-05
8.9603e-05
8.85713e-05
8.75397e-05
8.65082e-05
8.54766e-05
8.44447e-05
8.34127e-05
8.23809e-05
8.13494e-05
8.03182e-05
7.9287e-05
7.82555e-05
7.72241e-05
7.61925e-05
7.51609e-05
7.41293e-05
7.30972e-05
7.20651e-05
7.10332e-05
7.00014e-05
6.89699e-05
6.79385e-05
6.69082e-05
6.5878e-05
6.48501e-05
6.38217e-05
6.27872e-05
6.1755e-05
6.07246e-05
5.96943e-05
5.86652e-05
5.76358e-05
5.66071e-05
5.55784e-05
5.45496e-05
5.35209e-05
5.24923e-05
5.14641e-05
5.04362e-05
4.94089e-05
4.83812e-05
4.7354e-05
4.63275e-05
4.5301e-05
4.42745e-05
4.32482e-05
4.22222e-05
4.11967e-05
4.01716e-05
3.91468e-05
3.81234e-05
3.71005e-05
3.60782e-05
3.50567e-05
3.40354e-05
3.3015e-05
3.19954e-05
3.09766e-05
2.99585e-05
2.89416e-05
2.7926e-05
2.69121e-05
2.58993e-05
2.48916e-05
2.38861e-05
2.28772e-05
2.18727e-05
2.08732e-05
1.98769e-05
1.88844e-05
1.78959e-05
1.69116e-05
1.59322e-05
1.49578e-05
1.39895e-05
1.30291e-05
1.20719e-05
1.11188e-05
1.01661e-05
9.22109e-06
8.28563e-06
7.38802e-06
6.57475e-06
6.02037e-06
5.91945e-06
6.698e-06
8.20344e-06
0.000221459
0.000263991
0.000288726
0.000297552
0.000300624
0.000300271
0.000299063
0.000297408
0.000295846
0.000294363
0.000293036
0.000291808
0.000290676
0.000289592
0.000288567
0.00028752
0.00028653
0.000285514
0.000284553
0.000283695
0.000282776
0.000281876
0.000280928
0.000279974
0.000279028
0.000278078
0.000277134
0.000276189
0.000275245
0.000274302
0.000273358
0.000272414
0.000271471
0.000270527
0.000269583
0.000268639
0.000267698
0.000266754
0.000265822
0.000264887
0.00026398
0.000263084
0.000262113
0.000261076
0.000260181
0.000259264
0.000258256
0.000257302
0.000256355
0.000255411
0.000254472
0.00025353
0.000252589
0.000251647
0.000250704
0.000249761
0.000248818
0.000247875
0.000246932
0.000245989
0.000245045
0.000244102
0.000243159
0.000242215
0.000241272
0.000240328
0.000239385
0.000238442
0.0002375
0.000236557
0.000235619
0.000234677
0.000233743
0.000232798
0.000231819
0.000230842
0.000229811
0.000228846
0.000227903
0.000226996
0.000226172
0.000225184
0.000224226
0.000223335
0.000222402
0.000221462
0.000220521
0.00021958
0.000218631
0.000217679
0.000216729
0.00021578
0.000214835
0.000213889
0.000212972
0.000212008
0.000211052
0.000210193
0.000209237
0.000208257
0.000207324
0.000206379
0.000205434
0.000204491
0.000203545
0.000202602
0.000201659
0.000200719
0.000199781
0.000198835
0.000197887
0.000196942
0.000195996
0.000195052
0.000194109
0.000193166
0.000192224
0.000191282
0.00019034
0.000189397
0.000188454
0.000187512
0.000186569
0.000185626
0.000184683
0.00018374
0.000182797
0.000181854
0.000180911
0.000179968
0.000179025
0.000178082
0.000177139
0.000176196
0.000175253
0.00017431
0.000173367
0.000172425
0.000171482
0.000170539
0.000169596
0.000168653
0.00016771
0.000166767
0.000165824
0.000164879
0.000163935
0.000162984
0.00016204
0.000161051
0.000160136
0.000158868
0.000158398
0.000154122
0.000156504
0.000155127
0.000154442
0.000153829
0.000152988
0.00015154
0.000150638
0.000149749
0.000148808
0.000147889
0.000146948
0.000146012
0.00014507
0.000144129
0.000143187
0.000142244
0.000141302
0.000140359
0.000139417
0.000138475
0.000137532
0.00013659
0.000135646
0.000134698
0.00013375
0.000132782
0.00013184
0.000130926
0.000129959
0.00012899
0.000128064
0.000127145
0.000126202
0.000125255
0.000124312
0.00012337
0.000122429
0.000121488
0.000120548
0.000119607
0.000118666
0.000117724
0.000116782
0.00011584
0.000114898
0.000113955
0.000113013
0.000112072
0.000111131
0.00011019
0.000109249
0.000108308
0.000107367
0.000106426
0.000105483
0.00010454
0.000103594
0.00010265
0.000101714
0.000100778
9.98414e-05
9.89078e-05
9.79763e-05
9.70165e-05
9.60539e-05
9.51322e-05
9.41946e-05
9.32363e-05
9.22907e-05
9.13462e-05
9.04038e-05
8.94628e-05
8.85214e-05
8.75806e-05
8.66396e-05
8.56989e-05
8.47582e-05
8.38173e-05
8.2876e-05
8.19347e-05
8.09937e-05
8.00527e-05
7.91119e-05
7.81708e-05
7.72295e-05
7.62882e-05
7.53472e-05
7.44066e-05
7.34662e-05
7.2526e-05
7.15855e-05
7.06452e-05
6.97046e-05
6.8764e-05
6.78233e-05
6.68822e-05
6.59411e-05
6.50003e-05
6.40597e-05
6.31192e-05
6.21789e-05
6.12398e-05
6.03007e-05
5.93656e-05
5.84301e-05
5.74858e-05
5.65446e-05
5.56065e-05
5.46681e-05
5.37313e-05
5.27942e-05
5.18576e-05
5.0921e-05
4.99843e-05
4.90478e-05
4.81116e-05
4.7176e-05
4.62406e-05
4.53058e-05
4.43712e-05
4.34372e-05
4.2504e-05
4.15707e-05
4.06377e-05
3.97053e-05
3.87733e-05
3.78418e-05
3.69108e-05
3.59803e-05
3.50519e-05
3.41242e-05
3.31972e-05
3.22714e-05
3.13461e-05
3.04222e-05
2.94995e-05
2.85779e-05
2.76576e-05
2.67392e-05
2.58227e-05
2.49083e-05
2.39951e-05
2.3089e-05
2.21867e-05
2.12805e-05
2.03797e-05
1.94861e-05
1.85971e-05
1.7713e-05
1.68344e-05
1.59617e-05
1.50954e-05
1.42356e-05
1.33834e-05
1.25418e-05
1.17046e-05
1.0873e-05
1.00454e-05
9.23298e-06
8.44465e-06
7.71982e-06
7.11683e-06
6.7942e-06
6.85536e-06
7.54731e-06
8.53437e-06
0.000193357
0.00023278
0.00025815
0.000268395
0.000272534
0.000272753
0.000271741
0.000270105
0.000268479
0.000266929
0.000265549
0.000264301
0.000263175
0.000262122
0.00026114
0.000260175
0.000259237
0.000258377
0.000257588
0.000256682
0.000255806
0.000255008
0.000254155
0.0002533
0.000252446
0.000251589
0.000250735
0.00024988
0.000249027
0.000248173
0.00024732
0.000246466
0.000245612
0.000244758
0.000243904
0.000243049
0.000242196
0.00024134
0.000240498
0.000239646
0.000238844
0.000238021
0.000237204
0.000236333
0.000235412
0.000234548
0.000233642
0.00023278
0.000231933
0.000231081
0.000230235
0.000229385
0.000228535
0.000227683
0.000226831
0.000225979
0.000225126
0.000224273
0.00022342
0.000222567
0.000221714
0.00022086
0.000220007
0.000219154
0.000218301
0.000217448
0.000216595
0.000215742
0.00021489
0.000214037
0.000213188
0.000212336
0.000211484
0.000210627
0.000209728
0.000208881
0.000208058
0.000207094
0.000206193
0.00020534
0.000204526
0.000203736
0.000202899
0.00020209
0.000201246
0.000200389
0.000199538
0.000198687
0.000197826
0.000196963
0.0001961
0.000195241
0.000194383
0.000193527
0.000192707
0.000191812
0.000190949
0.000190219
0.000189342
0.000188446
0.000187601
0.000186748
0.000185891
0.000185038
0.00018418
0.000183327
0.000182474
0.000181625
0.000180779
0.000179923
0.000179064
0.000178207
0.000177352
0.000176499
0.000175646
0.000174794
0.000173943
0.000173091
0.000172239
0.000171387
0.000170534
0.000169682
0.000168829
0.000167977
0.000167124
0.000166271
0.000165418
0.000164566
0.000163713
0.00016286
0.000162007
0.000161155
0.000160302
0.00015945
0.000158597
0.000157744
0.000156892
0.000156039
0.000155187
0.000154334
0.000153481
0.000152629
0.000151776
0.000150923
0.00015007
0.000149216
0.000148363
0.000147504
0.000146655
0.000145781
0.000144978
0.000144056
0.000143592
0.000142775
0.000141329
0.000140574
0.000139444
0.000139069
0.000135032
0.000137382
0.000136066
0.000135539
0.000134659
0.000133852
0.000133
0.000132156
0.000131305
0.000130455
0.000129603
0.000128751
0.000127899
0.000127048
0.000126196
0.000125345
0.000124494
0.000123643
0.000122791
0.000121936
0.000121078
0.000120192
0.000119349
0.000118522
0.00011762
0.00011675
0.000115922
0.000115106
0.00011425
0.000113391
0.000112539
0.000111687
0.000110837
0.000109988
0.000109138
0.000108288
0.000107437
0.000106586
0.000105735
0.000104883
0.000104031
0.000103179
0.000102327
0.000101476
0.000100626
9.9776e-05
9.89263e-05
9.80765e-05
9.72264e-05
9.63763e-05
9.55238e-05
9.46714e-05
9.3814e-05
9.29591e-05
9.21149e-05
9.12714e-05
9.04244e-05
8.95859e-05
8.8752e-05
8.78885e-05
8.70016e-05
8.61678e-05
8.53284e-05
8.4454e-05
8.35988e-05
8.27467e-05
8.18957e-05
8.10466e-05
8.01967e-05
7.93473e-05
7.84978e-05
7.76485e-05
7.6799e-05
7.59493e-05
7.50993e-05
7.42493e-05
7.33996e-05
7.255e-05
7.17005e-05
7.08507e-05
7.00008e-05
6.91509e-05
6.83015e-05
6.74524e-05
6.66036e-05
6.57551e-05
6.49064e-05
6.4058e-05
6.32092e-05
6.23603e-05
6.15114e-05
6.06622e-05
5.9813e-05
5.89641e-05
5.81155e-05
5.72669e-05
5.64184e-05
5.55712e-05
5.47238e-05
5.38825e-05
5.30412e-05
5.21878e-05
5.13384e-05
5.04936e-05
4.96483e-05
4.88048e-05
4.7961e-05
4.71175e-05
4.6274e-05
4.54304e-05
4.45873e-05
4.37446e-05
4.29027e-05
4.20608e-05
4.12199e-05
4.03796e-05
3.954e-05
3.87012e-05
3.78626e-05
3.70245e-05
3.61873e-05
3.53508e-05
3.45148e-05
3.36792e-05
3.28445e-05
3.20128e-05
3.1182e-05
3.03521e-05
2.95237e-05
2.86963e-05
2.78707e-05
2.70468e-05
2.62245e-05
2.54043e-05
2.45865e-05
2.37711e-05
2.29585e-05
2.2147e-05
2.1345e-05
2.05491e-05
1.97481e-05
1.89533e-05
1.81688e-05
1.73898e-05
1.66172e-05
1.58516e-05
1.50935e-05
1.43436e-05
1.36017e-05
1.28696e-05
1.21504e-05
1.14382e-05
1.07358e-05
1.00427e-05
9.37426e-06
8.74441e-06
8.19652e-06
7.78114e-06
7.6176e-06
7.72289e-06
8.23249e-06
8.72487e-06
0.000168971
0.00020378
0.000228262
0.00023919
0.000244092
0.000244854
0.000244115
0.000242596
0.000240995
0.000239443
0.00023806
0.000236822
0.000235723
0.000234717
0.000233791
0.000232908
0.000232063
0.00023131
0.000230563
0.000229728
0.000228955
0.000228228
0.000227464
0.000226704
0.00022594
0.000225175
0.000224412
0.000223648
0.000222884
0.000222121
0.000221357
0.000220593
0.000219829
0.000219064
0.000218299
0.000217533
0.000216769
0.000215999
0.000215245
0.000214468
0.00021377
0.000213036
0.000212433
0.000211623
0.000210655
0.000209909
0.000209103
0.000208326
0.000207584
0.000206824
0.000206071
0.000205311
0.000204552
0.00020379
0.000203029
0.000202266
0.000201504
0.000200741
0.000199978
0.000199214
0.000198451
0.000197688
0.000196925
0.000196161
0.000195398
0.000194635
0.000193872
0.000193109
0.000192347
0.000191585
0.000190824
0.000190061
0.000189298
0.000188532
0.000187742
0.000186976
0.000186268
0.000185412
0.000184584
0.000183699
0.000182986
0.000182407
0.000181635
0.000180908
0.000180159
0.000179378
0.000178618
0.000177858
0.000177086
0.000176309
0.000175535
0.000174766
0.00017399
0.000173222
0.000172476
0.000171683
0.000170987
0.000170322
0.000169497
0.00016869
0.000167936
0.00016718
0.000166408
0.000165646
0.000164876
0.000164112
0.000163349
0.00016259
0.000161838
0.000161071
0.000160299
0.000159532
0.000158766
0.000158004
0.000157242
0.000156481
0.00015572
0.000154958
0.000154196
0.000153434
0.000152672
0.00015191
0.000151147
0.000150384
0.000149622
0.000148859
0.000148096
0.000147334
0.000146571
0.000145808
0.000145046
0.000144283
0.000143521
0.000142758
0.000141996
0.000141233
0.000140471
0.000139708
0.000138946
0.000138183
0.000137421
0.000136658
0.000135896
0.000135133
0.000134371
0.000133607
0.000132845
0.000132078
0.00013132
0.000130547
0.000129823
0.000129069
0.000128409
0.000127592
0.0001267
0.000125951
0.000125111
0.000124317
0.000124048
0.00012322
0.000122116
0.00012142
0.000120614
0.000119873
0.000119108
0.000118352
0.00011759
0.00011683
0.000116069
0.000115308
0.000114546
0.000113785
0.000113024
0.000112264
0.000111504
0.000110746
0.000109985
0.000109225
0.000108461
0.000107669
0.0001069
0.000106106
0.000105327
0.000104576
0.00010383
0.00010312
0.000102347
0.000101574
0.000100812
0.000100052
9.92928e-05
9.85347e-05
9.77754e-05
9.7016e-05
9.62558e-05
9.54952e-05
9.47341e-05
9.39727e-05
9.3211e-05
9.24493e-05
9.16879e-05
9.09274e-05
9.01678e-05
8.94084e-05
8.86495e-05
8.78906e-05
8.71315e-05
8.63726e-05
8.56108e-05
8.48492e-05
8.408e-05