/*--------------------------------*- C++ -*----------------------------------*\
| =========                 |                                                 |
| \\      /  F ield         | foam-extend: Open Source CFD                    |
|  \\    /   O peration     | Version:     4.0                                |
|   \\  /    A nd           | Web:         http://www.foam-extend.org         |
|    \\/     M anipulation  |                                                 |
\*---------------------------------------------------------------------------*/
FoamFile
{
    version     2.0;
    format      ascii;
    class       volSymmTensorField;
    location    "1";
    object      epsilon;
}
// * * * * * * * * * * * * * * * * * * * * * * * * * * * * * * * * * * * * * //

dimensions      [0 0 0 0 0 0 0];

internalField   nonuniform List<symmTensor> 
10240
(
(-0.000568458 -6.67524e-05 -2.11227e-19 0.000217905 -1.07752e-19 -1.53084e-32)
(-0.000504943 -1.35241e-05 -3.75569e-18 0.000214638 -1.90637e-18 -1.35455e-31)
(-0.000504251 -1.08687e-06 -4.72401e-18 0.000214692 -2.29091e-19 1.62793e-32)
(-0.000500161 7.02009e-07 2.11403e-17 0.000213296 7.1748e-18 -1.2745e-30)
(-0.00050455 1.23517e-06 -7.14483e-18 0.000214879 -2.37473e-18 -3.37468e-31)
(-0.000506424 9.05931e-07 -1.58249e-17 0.000215581 -5.31316e-18 -3.77523e-31)
(-0.000508517 5.58507e-07 7.91814e-18 0.000216369 1.92174e-18 -1.36548e-31)
(-0.000509258 2.30852e-07 -9.0442e-18 0.000216637 -1.92413e-18 -1.36717e-31)
(-0.000509463 -1.90514e-08 1.01921e-17 0.000216689 1.92459e-18 -1.3675e-31)
(-0.000508999 -2.00893e-07 -1.13499e-17 0.000216475 -1.92269e-18 -1.36615e-31)
(-0.000508176 -3.2729e-07 1.22823e-18 0.000216113 -5.90779e-18 4.19775e-31)
(-0.000507043 -4.12083e-07 2.05118e-17 0.000215626 2.87272e-18 -3.06178e-31)
(-0.000505746 -4.67396e-07 2.60654e-17 0.00021507 1.11928e-17 -7.95296e-31)
(-0.000504296 -5.03388e-07 -1.15149e-17 0.000214453 2.09824e-18 1.49089e-31)
(-0.000502814 -5.26118e-07 4.10852e-18 0.000213816 -3.34234e-18 1.18744e-31)
(-0.000501199 -5.57026e-07 4.45154e-18 0.000213141 4.58008e-18 -2.83116e-45)
(-0.000499555 -5.72602e-07 -3.00179e-17 0.000212394 5.96023e-18 8.47002e-31)
(-0.000497961 -6.06427e-07 -2.94261e-17 0.000211824 -1.21824e-17 -8.65613e-31)
(-0.000495786 -8.47667e-07 -2.17179e-17 0.000211022 -1.87425e-18 -1.33173e-31)
(-0.000494208 -5.06287e-07 -7.04859e-18 0.000210085 4.79055e-18 1.70195e-31)
(-0.000492874 -5.7309e-07 -1.31328e-17 0.000209543 -1.80152e-17 5.12613e-44)
(-0.000491206 -5.37436e-07 3.49803e-17 0.000208885 -1.82906e-17 2.59925e-30)
(-0.000489708 -5.5463e-07 9.62221e-17 0.000208243 1.30408e-17 -3.2431e-30)
(-0.000488031 -5.60669e-07 5.18908e-17 0.000207536 1.98833e-17 -2.11919e-30)
(-0.000486416 -5.63099e-07 4.32024e-18 0.000206848 7.12662e-18 1.75685e-47)
(-0.000484759 -5.64502e-07 -4.30553e-18 0.000206144 -7.40488e-18 4.29472e-45)
(-0.000483118 -5.64716e-07 6.17536e-17 0.000205446 -2.23259e-17 3.96588e-30)
(-0.000481469 -5.64771e-07 1.15626e-16 0.000204744 1.43233e-17 -3.56206e-30)
(-0.000479823 -5.64628e-07 3.93084e-17 0.000204045 1.41633e-17 -1.00636e-30)
(-0.000478177 -5.64446e-07 6.80276e-17 0.000203345 3.61213e-18 -5.13313e-31)
(-0.000476531 -5.64238e-07 5.68944e-17 0.000202645 1.14818e-17 -1.22374e-30)
(-0.000474887 -5.6402e-07 3.19805e-17 0.000201945 -7.26095e-18 5.15922e-31)
(-0.000473243 -5.63748e-07 3.72849e-17 0.000201246 1.78743e-18 -1.27004e-31)
(-0.0004716 -5.63449e-07 5.75516e-17 0.000200547 2.67183e-18 -2.84767e-31)
(-0.000469958 -5.63024e-07 8.30677e-17 0.000199849 1.34167e-17 -1.90663e-30)
(-0.000468317 -5.62652e-07 6.91022e-17 0.000199151 2.29243e-17 -2.4433e-30)
(-0.000466678 -5.62104e-07 -1.03623e-17 0.000198454 -2.60086e-17 5.14932e-44)
(-0.000465039 -5.62332e-07 1.72005e-17 0.000197757 -9.79219e-18 3.47888e-31)
(-0.000463401 -5.62356e-07 6.76466e-17 0.000197061 8.09361e-18 -8.62627e-31)
(-0.000461758 -5.6555e-07 3.45332e-17 0.000196363 -2.626e-17 1.86588e-30)
(-0.000460107 -5.67993e-07 1.58407e-16 0.00019566 3.49434e-19 -8.68994e-32)
(-0.000458449 -5.75167e-07 7.03436e-17 0.000194957 2.59735e-18 -2.76828e-31)
(-0.000456758 -5.79028e-07 1.7389e-16 0.000194237 2.40249e-17 -5.97476e-30)
(-0.000455089 -5.60208e-07 5.50507e-17 0.000193525 2.00967e-17 -1.42796e-30)
(-0.00045349 -5.49184e-07 -1.00695e-17 0.000192849 -3.12798e-17 1.73662e-43)
(-0.000451872 -5.60929e-07 2.04264e-16 0.000192159 6.82685e-18 -1.94031e-30)
(-0.000450223 -5.65603e-07 1.3025e-16 0.000191457 4.2512e-18 -7.55164e-31)
(-0.000448574 -5.67914e-07 1.89941e-16 0.000190756 1.92176e-17 -4.77921e-30)
(-0.000446917 -5.68944e-07 5.95413e-18 0.000190051 2.03165e-17 1.92323e-44)
(-0.000445263 -5.68196e-07 -9.88682e-18 0.000189348 -3.45e-17 1.0984e-43)
(-0.00044361 -5.67795e-07 1.96695e-16 0.000188645 5.86427e-18 -1.45838e-30)
(-0.000441959 -5.67124e-07 5.72134e-17 0.000187943 1.66927e-18 -1.18609e-31)
(-0.000440311 -5.66789e-07 2.07697e-16 0.000187242 2.03818e-17 -5.06875e-30)
(-0.000438663 -5.66515e-07 9.4692e-17 0.000186541 2.47048e-17 -2.63306e-30)
(-0.000437016 -5.6639e-07 -9.70372e-18 0.000185841 -3.76598e-17 1.18231e-43)
(-0.00043537 -5.66303e-07 2.1819e-16 0.000185141 2.10692e-17 -5.23969e-30)
(-0.000433725 -5.66259e-07 -2.86983e-31 0.000184441 -1.04024e-30 -3.52603e-59)
(-0.000432079 -5.66206e-07 2.21282e-16 0.000183741 5.71184e-18 -1.42047e-30)
(-0.000430434 -5.66152e-07 -4.58536e-31 0.000183042 -1.7865e-30 -6.60608e-59)
(-0.000428788 -5.66094e-07 9.77951e-17 0.000182342 2.42929e-18 -2.58916e-31)
(-0.000427143 -5.66038e-07 5.69069e-18 0.000181642 2.48242e-17 9.42116e-44)
(-0.000425497 -5.65973e-07 -3.77918e-18 0.000180943 -1.67937e-17 2.10931e-45)
(-0.000423852 -5.65902e-07 7.52912e-18 0.000180243 3.40742e-17 6.45954e-44)
(-0.000422207 -5.65835e-07 -6.90978e-17 0.000179543 -1.59467e-18 -1.13308e-31)
(-0.000420561 -5.6578e-07 -7.47067e-18 0.000178844 -3.50419e-17 -4.43154e-44)
(-0.000418916 -5.65757e-07 7.47465e-17 0.000178144 1.93437e-17 -1.37445e-30)
(-0.000417271 -5.65772e-07 6.64249e-17 0.000177444 -2.54256e-17 1.80659e-30)
(-0.000415625 -5.65854e-07 2.95446e-16 0.000176744 2.45189e-17 -6.96869e-30)
(-0.000413981 -5.66125e-07 5.51533e-18 0.000176045 2.77161e-17 -1.6647e-43)
(-0.000412329 -5.66593e-07 -7.32444e-18 0.000175343 -3.74283e-17 9.23619e-44)
(-0.00041069 -5.68079e-07 7.57797e-17 0.000174645 1.55116e-18 -1.10217e-31)
(-0.000409015 -5.70505e-07 1.51622e-16 0.000173934 -6.50276e-18 9.24096e-31)
(-0.000407389 -5.75842e-07 1.23719e-16 0.000173238 4.11456e-17 -4.38534e-30)
(-0.000405614 -5.9049e-07 -7.85863e-17 0.000172488 -1.532e-18 -1.08855e-31)
(-0.00040398 -5.6089e-07 2.71977e-17 0.00017175 -6.88276e-17 2.44524e-30)
(-0.000402069 -6.15393e-07 2.9043e-16 0.000170917 5.55952e-17 -1.38259e-29)
(-0.000400365 -3.3065e-07 -8.13679e-17 0.000170409 -1.51354e-18 -1.07543e-31)
(-0.000399167 -5.24826e-07 2.02161e-16 0.000169801 -1.6805e-17 2.98516e-30)
(-0.000397504 -5.42848e-07 5.29582e-18 0.000169004 3.12029e-17 7.43151e-44)
(-0.000395924 -5.45491e-07 -8.76126e-17 0.000168372 -2.25243e-17 -1.60045e-30)
(-0.000394327 -5.75808e-07 -1.75117e-18 0.000167684 -1.0628e-17 -5.36576e-46)
(-0.000392601 -5.85226e-07 1.21885e-16 0.000166952 -4.07391e-17 4.34203e-30)
(-0.000390929 -5.74538e-07 2.60411e-16 0.000166242 4.42958e-18 -9.44219e-31)
(-0.000389268 -5.69067e-07 1.38461e-16 0.000165536 4.60643e-17 -4.90959e-30)
(-0.000387621 -5.6578e-07 1.72138e-18 0.000164836 1.1076e-17 1.15828e-44)
(-0.000385979 -5.63983e-07 -1.71409e-18 0.000164138 -1.11867e-17 -1.11578e-45)
(-0.00038434 -5.64154e-07 1.28708e-16 0.000163441 -4.30108e-17 4.58415e-30)
(-0.000382699 -5.64644e-07 2.73707e-16 0.000162743 4.33635e-18 -9.24346e-31)
(-0.000381056 -5.65803e-07 1.44935e-16 0.000162044 4.82244e-17 -5.13981e-30)
(-0.00037941 -5.66041e-07 5.05476e-18 0.000161344 3.4876e-17 3.64073e-44)
(-0.000377764 -5.66254e-07 -9.55278e-17 0.000160644 -1.31606e-17 -9.35116e-31)
(-0.000376118 -5.65511e-07 1.3205e-16 0.000159944 -6.89199e-17 7.34557e-30)
(-0.000374475 -5.65557e-07 2.88387e-16 0.000159245 1.61925e-17 -3.45163e-30)
(-0.000372829 -5.6529e-07 1.01398e-16 0.000158545 3.75774e-17 -2.67003e-30)
(-0.00037119 -5.66014e-07 4.69935e-17 0.000157848 -1.1462e-17 4.07212e-31)
(-0.000369536 -5.69669e-07 1.47199e-16 0.000157146 2.0936e-18 -2.23139e-31)
(-0.000367884 -5.63067e-07 1.501e-16 0.000156441 1.44589e-17 -1.54105e-30)
(-0.000366261 -5.60668e-07 9.98189e-17 0.000155754 1.38337e-18 -9.82943e-32)
(-0.000364621 -5.67117e-07 1.50985e-16 0.000155055 2.06575e-18 -2.2017e-31)
(-0.00036297 -5.6661e-07 1.61191e-18 0.000154353 1.26888e-17 -3.37499e-45)
(-0.000361327 -5.66168e-07 -7.27031e-32 0.000153654 -9.69697e-34 -4.89571e-62)
(-0.000359679 -5.66409e-07 1.01549e-16 0.000152954 -1.15374e-17 8.19778e-31)
(-0.000358035 -5.65661e-07 2.58333e-16 0.000152255 -9.61794e-18 1.70849e-30)
(-0.000356391 -5.65792e-07 1.57182e-16 0.000151555 2.01912e-18 -2.152e-31)
(-0.000354747 -5.65392e-07 5.43768e-17 0.000150856 1.38728e-17 -4.92861e-31)
(-0.000353105 -5.65261e-07 1.5681e-18 0.000150158 1.33043e-17 3.84544e-44)
(-0.000351463 -5.65167e-07 1.02539e-16 0.00014946 -3.88882e-17 2.76317e-30)
(-0.000349821 -5.65368e-07 2.70063e-16 0.000148762 3.30317e-18 -5.8676e-31)
(-0.000348179 -5.66043e-07 1.11918e-16 0.000148063 2.85264e-17 -2.02692e-30)
(-0.000346533 -5.66981e-07 1.59816e-16 0.000147363 -3.91524e-17 4.17291e-30)
(-0.000344885 -5.67472e-07 1.65621e-16 0.000146662 1.95394e-18 -2.08253e-31)
(-0.000343237 -5.67693e-07 1.62231e-16 0.000145961 -3.9764e-17 4.2381e-30)
(-0.000341588 -5.67596e-07 5.61455e-16 0.00014526 2.04518e-17 -7.26594e-30)
(-0.000339939 -5.67324e-07 1.20317e-16 0.000144559 7.1777e-17 -5.10006e-30)
(-0.000338292 -5.67036e-07 1.70319e-16 0.000143859 1.91659e-18 -2.04272e-31)
(-0.000336646 -5.66749e-07 1.14319e-16 0.000143159 1.27151e-18 -9.03457e-32)
(-0.000335 -5.66533e-07 1.66683e-16 0.000142459 -5.56568e-17 5.93197e-30)
(-0.000333354 -5.66362e-07 3.52007e-16 0.000141759 4.72305e-17 -1.00678e-29)
(-0.000331709 -5.6624e-07 1.2251e-16 0.000141059 5.95716e-17 -4.23281e-30)
(-0.000330064 -5.66143e-07 -2.93156e-18 0.00014036 -2.9349e-17 -3.85072e-44)
(-0.00032842 -5.66071e-07 1.1813e-16 0.000139661 1.24044e-18 -8.81381e-32)
(-0.000326775 -5.66032e-07 2.90234e-18 0.000138961 2.97254e-17 1.31315e-43)
(-0.00032513 -5.66e-07 -1.04668e-31 0.000138262 -1.06271e-30 -1.30989e-60)
(-0.000323485 -5.65967e-07 1.17499e-16 0.000137562 -2.88762e-17 2.05177e-30)
(-0.00032184 -5.65923e-07 -4.28777e-18 0.000136863 -4.54243e-17 3.84918e-43)
(-0.000320195 -5.65862e-07 1.81349e-16 0.000136163 -1.34194e-17 1.43025e-30)
(-0.00031855 -5.65793e-07 1.90942e-16 0.000135463 7.84293e-17 -8.3591e-30)
(-0.000316905 -5.65727e-07 -2.81468e-18 0.000134764 -3.08319e-17 1.54901e-43)
(-0.000315259 -5.65688e-07 4.31312e-16 0.000134064 -2.68455e-17 6.67619e-30)
(-0.000313614 -5.65672e-07 1.28931e-16 0.000133364 4.79743e-17 -3.40878e-30)
(-0.000311968 -5.65692e-07 2.77083e-18 0.000132664 3.13724e-17 8.07403e-44)
(-0.000310322 -5.65716e-07 -4.13432e-18 0.000131964 -4.73261e-17 3.58301e-43)
(-0.000308676 -5.65749e-07 3.14489e-16 0.000131265 -2.88134e-17 5.11829e-30)
(-0.000307031 -5.65789e-07 1.30325e-16 0.000130565 3.30641e-17 -2.34935e-30)
(-0.000305386 -5.65841e-07 -6.14374e-17 0.000129865 3.15032e-17 1.11922e-30)
(-0.000303741 -5.65902e-07 -1.27649e-16 0.000129166 1.498e-17 1.06439e-30)
(-0.000302096 -5.65957e-07 -1.07326e-17 0.000128466 -1.29712e-16 6.55518e-43)
(-0.00030045 -5.66025e-07 6.50579e-16 0.000127766 -1.06264e-17 3.77524e-30)
(-0.000298805 -5.66092e-07 2.03239e-16 0.000127067 8.36238e-17 -8.91273e-30)
(-0.00029716 -5.66166e-07 1.98948e-16 0.000126367 1.81551e-17 -1.935e-30)
(-0.000295515 -5.66217e-07 1.33744e-16 0.000125668 1.76726e-17 -1.25571e-30)
(-0.00029387 -5.66259e-07 1.33107e-16 0.000124968 1.10994e-18 -7.8866e-32)
(-0.000292225 -5.66258e-07 2.67557e-16 0.000124269 2.20746e-18 -3.13698e-31)
(-0.00029058 -5.66218e-07 1.33156e-16 0.000123569 -1.57108e-17 1.11632e-30)
(-0.000288935 -5.66084e-07 6.3706e-17 0.00012287 -5.01285e-17 1.78092e-30)
(-0.00028729 -5.65899e-07 4.75199e-16 0.00012217 3.79781e-18 -9.44475e-31)
(-0.000285647 -5.65238e-07 3.43607e-16 0.000121471 3.68092e-17 -6.53862e-30)
(-0.000284003 -5.64614e-07 2.06882e-16 0.000120772 1.87466e-17 -1.99804e-30)
(-0.000282365 -5.62012e-07 1.38984e-16 0.000120075 1.82852e-17 -1.29924e-30)
(-0.000280732 -5.61507e-07 -4.20284e-30 0.00011938 -5.90011e-29 1.4894e-57)
(-0.000279101 -5.5568e-07 -3.71837e-18 0.000118686 -5.21389e-17 1.92305e-43)
(-0.000277498 -5.62435e-07 4.9126e-16 0.000118004 3.85872e-17 -9.59625e-30)
(-0.000275831 -5.83605e-07 2.10437e-16 0.000117307 1.56285e-18 -1.6657e-31)
(-0.000274163 -5.5989e-07 2.08946e-16 0.000116595 -3.36818e-17 3.58985e-30)
(-0.000272563 -5.43507e-07 1.45175e-16 0.000115906 5.41157e-17 -3.84514e-30)
(-0.000270975 -5.54234e-07 2.41002e-31 0.000115231 5.05078e-30 2.54999e-58)
(-0.000269325 -5.83809e-07 -7.17625e-18 0.000114531 -1.07107e-16 2.84474e-42)
(-0.000267608 -5.85542e-07 7.1702e-16 0.000113803 5.05387e-18 -1.79549e-30)
(-0.000265918 -5.6885e-07 5.90456e-18 0.000113072 9.00209e-17 8.61257e-43)
(-0.0002643 -5.54622e-07 -7.70048e-17 0.000112394 -7.28189e-17 -2.58704e-30)
(-0.000262676 -5.70373e-07 4.33341e-16 0.000111703 -3.33349e-17 7.10576e-30)
(-0.000260997 -5.73782e-07 3.62246e-16 0.000110987 -3.39971e-17 6.03909e-30)
(-0.000259338 -5.71417e-07 7.32111e-16 0.000110284 4.89758e-18 -1.73997e-30)
(-0.000257678 -5.7076e-07 5.17985e-16 0.000109577 5.85445e-17 -1.45594e-29)
(-0.000256023 -5.68784e-07 5.15476e-16 0.000108874 -1.50685e-17 3.74738e-30)
(-0.000254372 -5.68066e-07 5.92754e-16 0.000108172 3.84303e-18 -1.09225e-30)
(-0.000252723 -5.67369e-07 3.71924e-16 0.00010747 2.38632e-18 -4.23895e-31)
(-0.000251075 -5.6708e-07 5.97388e-16 0.00010677 3.79322e-18 -1.0781e-30)
(-0.000249428 -5.66885e-07 5.28045e-16 0.000106069 5.95251e-17 -1.48033e-29)
(-0.000247781 -5.6684e-07 3.78427e-16 0.000105369 3.99673e-17 -7.09962e-30)
(-0.000246134 -5.66883e-07 3.75455e-16 0.000104668 -3.54451e-17 6.29631e-30)
(-0.000244486 -5.67007e-07 3.73618e-16 0.000103968 -9.24659e-17 1.64252e-29)
(-0.000242838 -5.67194e-07 7.60887e-16 0.000103267 4.58597e-18 -1.62926e-30)
(-0.000241189 -5.67427e-07 5.39918e-16 0.000102566 9.86586e-17 -2.45354e-29)
(-0.000239539 -5.67782e-07 3.85335e-16 0.000101864 4.05876e-17 -7.20981e-30)
(-0.000237889 -5.68028e-07 3.82462e-16 0.000101162 -3.62163e-17 6.4333e-30)
(-0.000236238 -5.68274e-07 3.80688e-16 0.00010046 -9.42653e-17 1.67449e-29)
(-0.000234587 -5.67806e-07 8.5202e-16 9.97581e-05 4.87316e-18 -1.90443e-30)
(-0.00023294 -5.66577e-07 6.23862e-16 9.90576e-05 4.23864e-17 -1.20469e-29)
(-0.000231293 -5.64735e-07 4.66914e-16 9.83573e-05 -1.68793e-17 3.59803e-30)
(-0.000229659 -5.60648e-07 6.26034e-16 9.76615e-05 3.46963e-18 -9.86129e-31)
(-0.00022803 -5.64053e-07 6.28133e-16 9.69705e-05 3.44509e-18 -9.79152e-31)
(-0.000226377 -5.70531e-07 6.31224e-16 9.62664e-05 2.31169e-17 -6.57022e-30)
(-0.000224717 -5.69384e-07 6.32287e-16 9.55601e-05 3.39498e-18 -9.6491e-31)
(-0.000223068 -5.66892e-07 4.74764e-16 9.48597e-05 -1.72981e-17 3.6873e-30)
(-0.000221423 -5.66825e-07 4.78267e-16 9.41599e-05 2.23983e-17 -4.77447e-30)
(-0.000219776 -5.67121e-07 3.97048e-16 9.346e-05 -3.78299e-17 6.71993e-30)
(-0.000218129 -5.6731e-07 8.80561e-16 9.27594e-05 4.53128e-18 -1.77082e-30)
(-0.000216482 -5.67024e-07 5.66907e-16 9.20593e-05 1.03249e-16 -2.56771e-29)
(-0.000214836 -5.66789e-07 2.40688e-16 9.13592e-05 -1.89222e-17 2.01675e-30)
(-0.000213191 -5.66366e-07 7.25239e-16 9.06594e-05 -3.67778e-17 1.17595e-29)
(-0.000211546 -5.66197e-07 4.07998e-16 8.99599e-05 6.2782e-17 -1.11523e-29)
(-0.000209901 -5.66086e-07 4.06387e-16 8.92604e-05 1.98198e-18 -3.5207e-31)
(-0.000208257 -5.66182e-07 5.70618e-16 8.85613e-05 2.75304e-18 -6.84652e-31)
(-0.000206613 -5.66299e-07 4.10608e-16 8.78621e-05 4.28333e-17 -7.60871e-30)
(-0.000204969 -5.66469e-07 4.08132e-16 8.7163e-05 -3.90649e-17 6.93931e-30)
(-0.000203324 -5.66627e-07 4.06607e-16 8.64636e-05 -1.00873e-16 1.79187e-29)
(-0.00020168 -5.66744e-07 8.24565e-16 8.57642e-05 3.8087e-18 -1.35312e-30)
(-0.000200034 -5.66784e-07 5.83248e-16 8.50646e-05 1.06015e-16 -2.63649e-29)
(-0.000198389 -5.66732e-07 4.16337e-16 8.4365e-05 4.33358e-17 -7.69798e-30)
(-0.000196745 -5.66658e-07 4.1396e-16 8.36656e-05 -3.9718e-17 7.05533e-30)
(-0.0001951 -5.66578e-07 4.12497e-16 8.29663e-05 -1.02378e-16 1.81859e-29)
(-0.000193456 -5.66537e-07 9.19474e-16 8.22672e-05 4.01874e-18 -1.57051e-30)
(-0.000191813 -5.66535e-07 6.72178e-16 8.15682e-05 4.48076e-17 -1.27351e-29)
(-0.000190169 -5.66574e-07 7.55409e-16 8.08693e-05 -1.77774e-17 5.68421e-30)
(-0.000188526 -5.66672e-07 5.06308e-16 8.01703e-05 2.32e-17 -4.94537e-30)
(-0.000186881 -5.66794e-07 5.91222e-16 7.9471e-05 2.47046e-18 -6.14377e-31)
(-0.000185236 -5.66955e-07 6.77388e-16 7.87713e-05 2.79852e-18 -7.95386e-31)
(-0.00018359 -5.66977e-07 5.94194e-16 7.80712e-05 2.42694e-18 -6.03555e-31)
(-0.000181943 -5.66783e-07 5.09758e-16 7.73713e-05 -1.92145e-17 4.09582e-30)
(-0.000180298 -5.66426e-07 5.12612e-16 7.66714e-05 2.33709e-17 -4.98181e-30)
(-0.000178654 -5.65591e-07 4.25951e-16 7.59723e-05 -4.10719e-17 7.29583e-30)
(-0.000177012 -5.65283e-07 9.42825e-16 7.52743e-05 3.67714e-18 -1.43702e-30)
(-0.00017537 -5.65552e-07 6.03729e-16 7.4576e-05 6.67608e-17 -1.66027e-29)
(-0.000173726 -5.66872e-07 6.88907e-16 7.38771e-05 2.62464e-18 -7.45968e-31)
(-0.000172078 -5.68159e-07 6.04181e-16 7.31762e-05 2.27477e-18 -5.65713e-31)
(-0.000170428 -5.70237e-07 2.61037e-16 7.24748e-05 4.42245e-17 -4.71351e-30)
(-0.000168769 -5.71135e-07 4.32761e-16 7.17692e-05 -2.00845e-17 3.56771e-30)
(-0.000167117 -5.66102e-07 7.78338e-16 7.10656e-05 -1.0579e-16 3.38258e-29)
(-0.000165483 -5.63397e-07 1.13063e-15 7.03722e-05 -3.94847e-17 1.82361e-29)
(-0.000163846 -5.66404e-07 7.01826e-16 6.96754e-05 1.1158e-16 -3.17129e-29)
(-0.0001622 -5.67772e-07 2.63822e-16 6.89754e-05 4.46542e-17 -4.7593e-30)
(-0.000160554 -5.68763e-07 6.99737e-16 6.82755e-05 -4.14022e-17 1.17672e-29)
(-0.000158905 -5.69216e-07 6.16917e-16 6.75741e-05 6.79796e-17 -1.69058e-29)
(-0.000157256 -5.69132e-07 4.40049e-16 6.68732e-05 1.48489e-18 -2.63768e-31)
(-0.000155608 -5.69033e-07 6.17323e-16 6.61724e-05 2.05706e-18 -5.11566e-31)
(-0.000153961 -5.68779e-07 2.64415e-16 6.54719e-05 -2.12219e-17 2.26185e-30)
(-0.000152314 -5.6865e-07 7.94848e-16 6.47716e-05 -6.38253e-17 2.04077e-29)
(-0.000150667 -5.68504e-07 7.97102e-16 6.40713e-05 -4.1802e-17 1.33659e-29)
(-0.000149021 -5.6838e-07 1.15553e-15 6.3371e-05 3.65852e-18 -1.68969e-30)
(-0.000147374 -5.68247e-07 8.02823e-16 6.26708e-05 4.70385e-17 -1.50403e-29)
(-0.000145728 -5.68139e-07 7.13801e-16 6.19707e-05 2.20164e-18 -6.25744e-31)
(-0.000144082 -5.67994e-07 7.15769e-16 6.12708e-05 2.45271e-17 -6.97101e-30)
(-0.000142436 -5.6784e-07 6.26887e-16 6.05711e-05 1.88292e-18 -4.68266e-31)
(-0.00014079 -5.67745e-07 5.3768e-16 5.98711e-05 -2.08367e-17 4.44159e-30)
(-0.000139144 -5.67626e-07 7.19642e-16 5.91711e-05 2.45742e-17 -6.98441e-30)
(-0.000137498 -5.6755e-07 4.48962e-16 5.84711e-05 -4.3725e-17 7.76711e-30)
(-0.000135852 -5.67461e-07 1.17251e-15 5.77711e-05 3.33521e-18 -1.54038e-30)
(-0.000134207 -5.67374e-07 6.33628e-16 5.70713e-05 4.69532e-17 -1.16768e-29)
(-0.000132561 -5.6729e-07 8.15685e-16 5.63713e-05 4.75085e-17 -1.51906e-29)
(-0.000130914 -5.67264e-07 4.5384e-16 5.5671e-05 2.39016e-17 -4.24578e-30)
(-0.000129267 -5.67262e-07 2.72403e-16 5.49704e-05 7.32355e-19 -7.80551e-32)
(-0.00012762 -5.67242e-07 4.54741e-16 5.42699e-05 1.20504e-18 -2.14057e-31)
(-0.000125972 -5.67274e-07 7.25951e-16 5.35695e-05 -1.11976e-16 3.18255e-29)
(-0.000124325 -5.67324e-07 1.18442e-15 5.28692e-05 -6.5383e-17 3.01973e-29)
(-0.000122678 -5.67489e-07 9.16508e-16 5.21688e-05 1.16552e-16 -4.14077e-29)
(-0.000121031 -5.67708e-07 2.75629e-16 5.14684e-05 4.64498e-17 -4.95068e-30)
(-0.000119385 -5.67948e-07 7.32186e-16 5.07681e-05 -4.40293e-17 1.25139e-29)
(-0.000117738 -5.681e-07 6.44111e-16 5.00679e-05 7.04078e-17 -1.75097e-29)
(-0.000116091 -5.68157e-07 4.59629e-16 4.93678e-05 1.09618e-18 -1.94722e-31)
(-0.000114444 -5.68164e-07 6.44405e-16 4.86674e-05 1.51288e-18 -3.76241e-31)
(-0.000112797 -5.68128e-07 2.76063e-16 4.79669e-05 -2.24105e-17 2.38854e-30)
(-0.000111149 -5.67964e-07 8.29367e-16 4.72662e-05 -6.73558e-17 2.15366e-29)
(-0.000109502 -5.67748e-07 8.31013e-16 4.65656e-05 -4.43654e-17 1.41856e-29)
(-0.000107855 -5.67517e-07 1.01968e-15 4.58652e-05 7.16737e-17 -2.80099e-29)
(-0.000106208 -5.67301e-07 5.57555e-16 4.51651e-05 7.07286e-17 -1.50767e-29)
(-0.000104562 -5.67225e-07 6.48747e-16 4.44652e-05 -4.50282e-17 1.11981e-29)
(-0.000102917 -5.67325e-07 6.50508e-16 4.37655e-05 1.36051e-18 -3.38344e-31)
(-0.00010127 -5.68047e-07 6.50878e-16 4.30652e-05 -2.19255e-17 5.45265e-30)
(-9.96202e-05 -5.68483e-07 5.58529e-16 4.23635e-05 -2.21642e-17 4.72459e-30)
(-9.79702e-05 -5.68288e-07 7.47507e-16 4.1662e-05 7.14442e-17 -2.03056e-29)
(-9.63208e-05 -5.68034e-07 2.79304e-16 4.09605e-05 -4.61526e-17 4.91901e-30)
(-9.46724e-05 -5.67648e-07 1.02761e-15 4.02596e-05 -4.47864e-17 1.75024e-29)
(-9.30251e-05 -5.67452e-07 6.56464e-16 3.95592e-05 7.144e-17 -1.77664e-29)
(-9.13785e-05 -5.67338e-07 9.37903e-16 3.88589e-05 4.85853e-17 -1.7261e-29)
(-8.97321e-05 -5.67365e-07 4.69862e-16 3.81588e-05 4.77588e-17 -8.48366e-30)
(-8.80856e-05 -5.67412e-07 9.31325e-17 3.74584e-05 -4.67961e-17 1.66253e-30)
(-8.64394e-05 -5.67435e-07 6.56952e-16 3.67585e-05 -6.9376e-17 1.72531e-29)
(-8.47933e-05 -5.67475e-07 7.51774e-16 3.60585e-05 -6.93113e-17 1.96994e-29)
(-8.31475e-05 -5.67485e-07 1.0363e-15 3.53587e-05 1.72726e-18 -6.75013e-31)
(-8.15017e-05 -5.67437e-07 7.55514e-16 3.46587e-05 7.19666e-17 -2.04541e-29)
(-7.98557e-05 -5.67344e-07 6.61126e-16 3.39586e-05 2.46572e-17 -6.13198e-30)
(-7.82091e-05 -5.67414e-07 7.55892e-16 3.32583e-05 1.18157e-18 -3.35823e-31)
(-7.65625e-05 -5.67432e-07 6.62707e-16 3.25581e-05 4.83048e-17 -1.20129e-29)
(-7.49161e-05 -5.67383e-07 4.7331e-16 3.18581e-05 7.07391e-19 -1.25658e-31)
(-7.32694e-05 -5.67277e-07 6.63229e-16 3.11578e-05 9.68577e-19 -2.40876e-31)
(-7.16229e-05 -5.67278e-07 9.483e-17 3.04575e-05 1.35259e-19 -4.80535e-33)
(-6.99758e-05 -5.67374e-07 6.63446e-16 2.97571e-05 -7.02659e-17 1.74744e-29)
(-6.83285e-05 -5.67436e-07 8.54003e-16 2.90566e-05 -7.0089e-17 2.24105e-29)
(-6.66809e-05 -5.67464e-07 1.04604e-15 2.8356e-05 2.51547e-17 -9.83039e-30)
(-6.50333e-05 -5.67361e-07 7.61723e-16 2.76553e-05 4.85592e-17 -1.38013e-29)
(-6.33861e-05 -5.67316e-07 7.61453e-16 2.69548e-05 -2.28491e-17 6.4941e-30)
(-6.17392e-05 -5.67192e-07 7.62582e-16 2.62545e-05 2.47574e-17 -7.03647e-30)
(-6.00929e-05 -5.67176e-07 4.77592e-16 2.55545e-05 7.20937e-17 -1.28064e-29)
(-5.8447e-05 -5.67241e-07 4.76871e-16 2.48545e-05 -2.33072e-17 4.14018e-30)
(-5.68011e-05 -5.67279e-07 7.63938e-16 2.41546e-05 8.58141e-19 -2.439e-31)
(-5.51549e-05 -5.67403e-07 2.86179e-16 2.34545e-05 -4.74708e-17 5.0595e-30)
(-5.35084e-05 -5.67485e-07 1.05133e-15 2.27543e-05 -4.67028e-17 1.82514e-29)
(-5.18617e-05 -5.6761e-07 6.70905e-16 2.20541e-05 1.20297e-16 -2.99166e-29)
(-5.02149e-05 -5.67659e-07 7.659e-16 2.13539e-05 7.58639e-19 -2.1562e-31)
(-4.85677e-05 -5.67655e-07 7.65922e-16 2.06534e-05 -4.71684e-17 1.3406e-29)
(-4.69208e-05 -5.6759e-07 4.79244e-16 1.9953e-05 4.43047e-19 -7.87002e-32)
(-4.52738e-05 -5.67601e-07 6.71111e-16 1.92526e-05 -2.33795e-17 5.81423e-30)
(-4.36264e-05 -5.67427e-07 7.6704e-16 1.8552e-05 -7.1313e-17 2.02683e-29)
(-4.19799e-05 -5.67192e-07 1.05602e-15 1.78518e-05 8.7206e-19 -3.40798e-31)
(-4.03333e-05 -5.67121e-07 7.68928e-16 1.71517e-05 7.26536e-17 -2.06494e-29)
(-3.8687e-05 -5.67244e-07 6.72831e-16 1.64515e-05 2.45375e-17 -6.10222e-30)
(-3.70402e-05 -5.67778e-07 7.69101e-16 1.57512e-05 5.59594e-19 -1.59046e-31)
(-3.53913e-05 -5.68055e-07 6.73568e-16 1.50501e-05 4.85625e-17 -1.2077e-29)
(-3.37427e-05 -5.67934e-07 4.81093e-16 1.43492e-05 3.18616e-19 -5.65974e-32)
(-3.20956e-05 -5.67658e-07 6.73795e-16 1.36485e-05 4.24283e-19 -1.05514e-31)
(-3.04489e-05 -5.67479e-07 2.88877e-16 1.29483e-05 1.72506e-19 -1.83859e-32)
(-2.88029e-05 -5.67354e-07 6.73899e-16 1.22483e-05 -7.18715e-17 1.78737e-29)
(-2.71577e-05 -5.67248e-07 8.66862e-16 1.15488e-05 -7.18147e-17 2.29623e-29)
(-2.55135e-05 -5.66974e-07 1.06038e-15 1.08497e-05 2.46296e-17 -9.62521e-30)
(-2.38708e-05 -5.6627e-07 7.71545e-16 1.01512e-05 4.8574e-17 -1.38055e-29)
(-2.22312e-05 -5.65059e-07 7.71445e-16 9.45382e-06 -2.37774e-17 6.75794e-30)
(-2.05969e-05 -5.63027e-07 7.71831e-16 8.7589e-06 2.44306e-17 -6.94357e-30)
(-1.89703e-05 -5.59859e-07 4.82703e-16 8.06716e-06 7.25542e-17 -1.28882e-29)
(-1.73553e-05 -5.54477e-07 5.78988e-16 7.37991e-06 -2.39336e-17 5.10174e-30)
(-1.57596e-05 -5.45897e-07 7.72239e-16 6.7009e-06 2.38064e-19 -6.76617e-32)
(-1.41922e-05 -5.32142e-07 2.89515e-16 6.03328e-06 -4.8198e-17 5.137e-30)
(-1.26738e-05 -5.11358e-07 1.06208e-15 5.38545e-06 -4.80229e-17 1.87673e-29)
(-1.12138e-05 -4.82063e-07 6.76291e-16 4.76127e-06 1.20881e-16 -3.00617e-29)
(-9.85825e-06 -4.41001e-07 7.7273e-16 4.17831e-06 1.48438e-19 -4.21916e-32)
(-8.59409e-06 -3.85488e-07 7.72768e-16 3.63072e-06 -4.81772e-17 1.36928e-29)
(-7.53603e-06 -3.2647e-07 4.83109e-16 3.15846e-06 7.01297e-20 -1.24583e-32)
(-6.45498e-06 -2.75632e-07 6.76477e-16 2.67571e-06 -2.4079e-17 5.98819e-30)
(-5.6949e-06 -5.73634e-07 7.73349e-16 2.34153e-06 -7.24331e-17 2.05867e-29)
(-3.26915e-06 -2.16878e-06 4.83869e-16 2.22691e-06 3.38871e-16 -5.77694e-32)
(-0.000483196 -0.000102488 4.29165e-18 0.000158196 2.86362e-18 0)
(-0.000485075 -3.05941e-05 -6.81386e-18 0.000196751 7.76246e-19 0)
(-0.000481001 -6.02523e-06 -2.34757e-18 0.000203082 4.01426e-19 0)
(-0.000476767 3.02379e-07 4.23454e-18 0.000204375 2.43812e-18 0)
(-0.000477332 2.33587e-06 2.81303e-17 0.000205272 1.81401e-17 0)
(-0.000477136 1.92649e-06 9.4814e-18 0.000205505 3.90543e-18 0)
(-0.000477678 1.20769e-06 -4.1912e-32 0.000205755 -3.70055e-32 0)
(-0.000477544 4.12599e-07 -9.0496e-18 0.000205697 -3.65392e-18 0)
(-0.000477229 -2.28373e-07 1.15861e-32 0.000205523 2.00405e-32 0)
(-0.000476503 -7.17357e-07 1.13342e-17 0.000205183 3.64478e-18 0)
(-0.000475565 -1.06532e-06 -6.52769e-32 0.000204751 -9.68016e-32 0)
(-0.000474413 -1.30479e-06 -6.14137e-17 0.000204237 -1.63259e-17 0)
(-0.000473149 -1.46333e-06 1.09345e-31 0.000203678 1.97297e-31 0)
(-0.000471769 -1.57134e-06 1.38665e-17 0.000203078 -3.96977e-19 0)
(-0.000470379 -1.63043e-06 4.27884e-17 0.000202477 8.99177e-18 0)
(-0.000468893 -1.76038e-06 2.45111e-17 0.000201846 1.73306e-17 0)
(-0.000467491 -1.66983e-06 5.40852e-17 0.000201288 9.90907e-19 0)
(-0.000466123 -2.24427e-06 4.51948e-17 0.000200579 1.74295e-17 0)
(-0.00046343 -1.45313e-06 -2.05804e-18 0.00019923 -5.43908e-18 0)
(-0.000461954 -1.10246e-06 3.7519e-17 0.000198818 -1.58382e-17 0)
(-0.000461238 -1.63895e-06 6.19657e-17 0.000198582 1.48251e-17 0)
(-0.000459539 -1.62442e-06 0 0.000197811 0 0)
(-0.000458131 -1.71559e-06 -2.82485e-17 0.000197197 -1.00717e-17 0)
(-0.000456551 -1.73748e-06 4.50558e-17 0.000196512 1.89339e-17 0)
(-0.000455034 -1.74705e-06 3.04713e-17 0.000195855 1.06072e-17 0)
(-0.000453484 -1.75156e-06 2.35219e-17 0.000195188 -1.87521e-17 0)
(-0.000451948 -1.75212e-06 1.53364e-17 0.000194526 1.72774e-18 0)
(-0.000450406 -1.75233e-06 -4.56671e-17 0.000193862 2.7946e-18 0)
(-0.000448866 -1.75184e-06 4.93199e-17 0.000193199 5.14786e-18 0)
(-0.000447326 -1.75133e-06 -3.59644e-17 0.000192536 -1.19301e-17 0)
(-0.000445787 -1.75066e-06 -3.5072e-17 0.000191874 -3.40836e-18 0)
(-0.000444248 -1.74996e-06 6.01621e-17 0.000191211 3.22633e-17 0)
(-0.000442711 -1.74909e-06 -3.9215e-17 0.000190549 -1.27126e-17 0)
(-0.000441173 -1.74812e-06 3.44134e-17 0.000189888 -1.58239e-17 0)
(-0.000439637 -1.74683e-06 1.58007e-17 0.000189226 -1.80558e-17 0)
(-0.000438101 -1.74572e-06 2.55455e-30 0.000188565 1.16875e-29 0)
(-0.000436567 -1.74417e-06 1.17466e-16 0.000187905 8.11794e-17 0)
(-0.000435032 -1.74473e-06 -1.08496e-16 0.000187245 -1.89873e-17 0)
(-0.0004335 -1.74469e-06 6.16847e-17 0.000186585 -1.69043e-17 0)
(-0.000431965 -1.75341e-06 1.91831e-18 0.000185928 1.12032e-17 0)
(-0.000430425 -1.75933e-06 -4.58069e-17 0.000185263 -3.29092e-18 0)
(-0.000428881 -1.7792e-06 -7.02888e-17 0.000184603 -4.91881e-18 0)
(-0.000427308 -1.78842e-06 -1.71472e-16 0.000183916 -3.54201e-17 0)
(-0.000425747 -1.74013e-06 -4.13891e-17 0.00018323 4.57589e-17 0)
(-0.000424241 -1.71222e-06 -5.18768e-17 0.000182604 -1.57571e-17 0)
(-0.000422719 -1.7431e-06 -8.59315e-17 0.000181949 -6.87132e-17 0)
(-0.00042117 -1.75454e-06 1.87037e-18 0.00018128 1.30316e-17 0)
(-0.000419627 -1.75999e-06 -1.27146e-16 0.000180616 3.18468e-17 0)
(-0.000418078 -1.76243e-06 6.15475e-17 0.000179947 5.738e-17 0)
(-0.000416532 -1.76008e-06 -3.69955e-18 0.000179282 -2.76031e-17 0)
(-0.000414988 -1.75871e-06 -8.79294e-17 0.000178617 -3.28717e-17 0)
(-0.000413444 -1.75657e-06 -5.71774e-17 0.000177953 -3.16108e-18 0)
(-0.000411903 -1.75533e-06 -1.50959e-16 0.000177289 -5.15614e-17 0)
(-0.000410362 -1.75427e-06 7.28949e-18 0.000176626 5.92582e-17 0)
(-0.000408822 -1.75368e-06 -5.83839e-17 0.000175963 1.19397e-17 0)
(-0.000407282 -1.75327e-06 -9.54163e-17 0.0001753 -3.53017e-17 0)
(-0.000405742 -1.75304e-06 -1.45932e-31 0.000174638 -1.11231e-30 0)
(-0.000404203 -1.75286e-06 -9.47813e-17 0.000173975 -4.63563e-18 0)
(-0.000402663 -1.75275e-06 -1.21199e-16 0.000173313 5.8081e-17 0)
(-0.000401124 -1.75268e-06 -6.51607e-17 0.00017265 -3.06688e-18 0)
(-0.000399585 -1.75264e-06 9.92125e-17 0.000171988 4.58267e-18 0)
(-0.000398046 -1.75258e-06 -6.35835e-17 0.000171325 3.05472e-17 0)
(-0.000396506 -1.7525e-06 3.05244e-17 0.000170663 -3.25615e-17 0)
(-0.000394967 -1.7524e-06 1.38124e-16 0.00017 6.03961e-18 0)
(-0.000393428 -1.75233e-06 -1.40055e-16 0.000169338 -6.01608e-18 0)
(-0.000391889 -1.75233e-06 -6.96134e-18 0.000168675 -7.1052e-17 0)
(-0.00039035 -1.75247e-06 -5.2005e-18 0.000168013 -5.40078e-17 0)
(-0.000388809 -1.75273e-06 -1.82257e-16 0.00016735 -7.43183e-18 0)
(-0.000387272 -1.75362e-06 8.24526e-17 0.000166688 9.53556e-17 0)
(-0.000385727 -1.75499e-06 -7.13745e-17 0.000166024 3.44822e-17 0)