/*--------------------------------*- C++ -*----------------------------------*\
| =========                 |                                                 |
| \\      /  F ield         | foam-extend: Open Source CFD                    |
|  \\    /   O peration     | Version:     4.0                                |
|   \\  /    A nd           | Web:         http://www.foam-extend.org         |
|    \\/     M anipulation  |                                                 |
\*---------------------------------------------------------------------------*/
FoamFile
{
    version     2.0;
    format      ascii;
    class       pointVectorField;
    location    "1";
    object      pointDD;
}
// * * * * * * * * * * * * * * * * * * * * * * * * * * * * * * * * * * * * * //

dimensions      [0 1 0 0 0 0 0];

internalField   nonuniform List<vector> 
21186
(
(-6.62e-07 -3.80664e-07 -6.7327e-22)
(-4.07017e-06 -3.00739e-06 -6.29402e-21)
(-7.08294e-06 -4.47636e-06 -6.67336e-21)
(-1.02627e-05 -5.9778e-06 2.17053e-20)
(-1.34546e-05 -7.69396e-06 1.50002e-20)
(-1.66924e-05 -9.72591e-06 -2.40246e-20)
(-1.99512e-05 -1.21187e-05 -1.05982e-20)
(-2.32279e-05 -1.48986e-05 -7.46232e-24)
(-2.65117e-05 -1.80782e-05 1.44492e-24)
(-2.97979e-05 -2.16643e-05 5.95329e-24)
(-3.30817e-05 -2.56598e-05 -2.44703e-20)
(-3.63603e-05 -3.00655e-05 -9.48466e-21)
(-3.96318e-05 -3.48811e-05 4.39547e-20)
(-4.28948e-05 -4.01059e-05 4.15345e-20)
(-4.61485e-05 -4.57386e-05 -3.88782e-21)
(-4.93926e-05 -5.17778e-05 3.86792e-21)
(-5.26262e-05 -5.82226e-05 3.29385e-20)
(-5.58488e-05 -6.50706e-05 -1.94443e-20)
(-5.90614e-05 -7.2318e-05 -4.39271e-20)
(-6.22609e-05 -7.99687e-05 9.11347e-21)
(-6.54496e-05 -8.80229e-05 -4.1327e-20)
(-6.8629e-05 -9.64732e-05 -1.13456e-19)
(-7.1798e-05 -0.000105319 -1.64058e-20)
(-7.49574e-05 -0.000114561 1.02888e-19)
(-7.8106e-05 -0.000124196 8.44061e-20)
(-8.12442e-05 -0.000134225 -8.69572e-22)
(-8.43717e-05 -0.000144645 -9.29087e-20)
(-8.74886e-05 -0.000155456 -2.50081e-20)
(-9.05948e-05 -0.000166656 8.90205e-20)
(-9.36904e-05 -0.000178243 5.55481e-20)
(-9.67755e-05 -0.000190216 4.71684e-20)
(-9.98499e-05 -0.000202575 1.319e-20)
(-0.000102914 -0.000215317 -1.71048e-20)
(-0.000105967 -0.000228441 1.39352e-20)
(-0.000109009 -0.000241947 5.02767e-20)
(-0.000112041 -0.000255832 1.13566e-19)
(-0.000115063 -0.000270095 -9.63835e-21)
(-0.000118074 -0.000284735 -1.11877e-19)
(-0.000121074 -0.000299752 -5.30809e-21)
(-0.000124064 -0.000315142 -5.67699e-20)
(-0.000127043 -0.000330906 -8.09704e-20)
(-0.000130011 -0.000347042 9.20866e-21)
(-0.000132969 -0.000363548 8.31946e-20)
(-0.000135916 -0.000380423 1.3788e-19)
(-0.000138852 -0.000397665 -3.4947e-20)
(-0.000141777 -0.000415272 -7.64153e-20)
(-0.000144693 -0.000433246 3.46189e-20)
(-0.000147597 -0.000451583 7.33399e-20)
(-0.000150491 -0.000470282 1.23544e-19)
(-0.000153375 -0.000489343 -4.43232e-20)
(-0.000156247 -0.000508764 -8.94864e-20)
(-0.000159109 -0.000528543 2.35423e-20)
(-0.000161961 -0.000548679 6.89096e-20)
(-0.000164801 -0.000569171 1.40895e-19)
(-0.000167632 -0.000590017 -4.04843e-20)
(-0.000170451 -0.000611217 -5.18454e-20)
(-0.00017326 -0.000632768 6.58411e-20)
(-0.000176058 -0.00065467 1.78495e-20)
(-0.000178846 -0.00067692 1.78495e-20)
(-0.000181623 -0.000699519 7.59151e-21)
(-0.000184389 -0.000722464 8.51669e-20)
(-0.000187145 -0.000745754 2.50951e-20)
(-0.00018989 -0.000769388 5.40013e-20)
(-0.000192624 -0.000793365 1.01498e-19)
(-0.000195348 -0.000817682 -1.14489e-19)
(-0.000198062 -0.00084234 -4.90568e-20)
(-0.000200764 -0.000867336 -1.90058e-20)
(-0.000203456 -0.000892669 -2.83326e-21)
(-0.000206138 -0.000918338 1.63234e-19)
(-0.000208809 -0.000944341 -3.03507e-20)
(-0.000211469 -0.000970678 -1.12116e-19)
(-0.000214119 -0.000997347 -1.54737e-20)
(-0.000216757 -0.00102435 1.08259e-19)
(-0.000219386 -0.00105167 1.23792e-19)
(-0.000222002 -0.00107933 -2.19873e-19)
(-0.000224608 -0.00110731 -4.13514e-20)
(-0.000227203 -0.00113562 1.69005e-19)
(-0.000229786 -0.00116425 -5.72453e-20)
(-0.000232361 -0.00119321 4.49932e-20)
(-0.000234926 -0.00122248 2.71204e-20)
(-0.00023748 -0.00125207 -1.03601e-19)
(-0.000240024 -0.00128199 -1.60522e-19)
(-0.000242557 -0.00131222 -1.13467e-19)
(-0.000245079 -0.00134277 1.57793e-19)
(-0.000247591 -0.00137363 1.78563e-19)
(-0.000250091 -0.0014048 -3.46193e-22)
(-0.000252582 -0.00143629 -1.69367e-19)
(-0.000255061 -0.00146809 -1.20858e-19)
(-0.00025753 -0.0015002 1.64252e-19)
(-0.000259989 -0.00153261 2.59688e-19)
(-0.000262436 -0.00156533 6.78604e-20)
(-0.000264874 -0.00159836 -2.56501e-19)
(-0.0002673 -0.00163169 -1.64773e-19)
(-0.000269716 -0.00166532 1.68031e-19)
(-0.000272122 -0.00169926 8.16104e-20)
(-0.000274516 -0.00173349 -2.92763e-20)
(-0.0002769 -0.00176802 5.17266e-20)
(-0.000279274 -0.00180285 4.95071e-20)
(-0.000281637 -0.00183798 1.07785e-20)
(-0.000283989 -0.0018734 4.6108e-20)
(-0.000286331 -0.00190912 3.96526e-20)
(-0.000288662 -0.00194512 -3.60542e-20)
(-0.000290983 -0.00198142 -6.61102e-20)
(-0.000293292 -0.00201801 -2.37463e-20)
(-0.000295592 -0.00205488 4.96622e-20)
(-0.00029788 -0.00209205 8.49283e-20)
(-0.000300159 -0.00212949 -7.99495e-20)
(-0.000302426 -0.00216722 -1.11203e-19)
(-0.000304683 -0.00220524 9.94674e-20)
(-0.000306929 -0.00224353 -3.32061e-20)
(-0.000309165 -0.00228211 -1.16245e-19)
(-0.00031139 -0.00232096 -1.18156e-19)
(-0.000313605 -0.0023601 -6.03505e-20)
(-0.000315808 -0.0023995 2.88215e-19)
(-0.000318002 -0.00243919 2.30292e-19)
(-0.000320184 -0.00247914 9.96276e-21)
(-0.000322356 -0.00251937 -1.69954e-19)
(-0.000324517 -0.00255987 -2.63321e-20)
(-0.000326668 -0.00260064 3.33756e-19)
(-0.000328808 -0.00264168 9.44456e-20)
(-0.000330937 -0.00268298 -8.78391e-20)
(-0.000333056 -0.00272455 9.6768e-20)
(-0.000335164 -0.00276638 9.28917e-20)
(-0.000337262 -0.00280848 -9.0238e-20)
(-0.000339349 -0.00285084 -2.32189e-19)
(-0.000341425 -0.00289346 -1.83886e-19)
(-0.000343491 -0.00293633 2.03156e-19)
(-0.000345546 -0.00297947 1.48742e-19)
(-0.000347591 -0.00302286 -1.80242e-19)
(-0.000349625 -0.0030665 6.60276e-20)
(-0.000351648 -0.0031104 2.47958e-19)
(-0.000353661 -0.00315456 -4.98551e-20)
(-0.000355663 -0.00319896 -2.37936e-19)
(-0.000357654 -0.00324361 1.32835e-20)
(-0.000359635 -0.00328851 2.01773e-19)
(-0.000361606 -0.00333366 1.4526e-19)
(-0.000363565 -0.00337905 -3.58538e-19)
(-0.000365514 -0.00342469 -4.38558e-19)
(-0.000367453 -0.00347057 2.28117e-19)
(-0.00036938 -0.00351669 3.18059e-19)
(-0.000371297 -0.00356305 1.11962e-19)
(-0.000373204 -0.00360965 5.86954e-20)
(-0.0003751 -0.00365649 1.03669e-20)
(-0.000376985 -0.00370357 -4.2198e-20)
(-0.00037886 -0.00375088 -2.05748e-19)
(-0.000380724 -0.00379842 -1.44783e-19)
(-0.000382578 -0.0038462 1.26897e-19)
(-0.00038442 -0.00389421 1.73612e-19)
(-0.000386253 -0.00394244 1.15724e-19)
(-0.000388074 -0.00399091 5.71412e-20)
(-0.000389886 -0.0040396 -1.62934e-19)
(-0.000391686 -0.00408852 -4.23489e-20)
(-0.000393477 -0.00413766 1.25469e-19)
(-0.000395256 -0.00418703 -1.00372e-19)
(-0.000397025 -0.00423662 6.38559e-20)
(-0.000398783 -0.00428642 1.69111e-19)
(-0.000400532 -0.00433645 -3.34708e-19)
(-0.000402269 -0.0043867 -3.18914e-19)
(-0.000403996 -0.00443716 2.97108e-19)
(-0.000405711 -0.00448783 5.37563e-20)
(-0.000407416 -0.00453872 -3.3173e-19)
(-0.000409111 -0.00458983 -2.10412e-19)
(-0.000410795 -0.00464114 -9.09358e-20)
(-0.000412468 -0.00469266 1.98256e-19)
(-0.000414131 -0.0047444 1.35862e-19)
(-0.000415782 -0.00479633 -3.50796e-20)
(-0.000417423 -0.00484848 1.94667e-20)
(-0.000419054 -0.00490083 1.93111e-20)
(-0.000420674 -0.00495338 1.9787e-19)
(-0.000422283 -0.00500614 3.10914e-19)
(-0.000423882 -0.00505909 1.4132e-20)
(-0.00042547 -0.00511225 -3.99721e-19)
(-0.000427047 -0.0051656 -2.74624e-19)
(-0.000428614 -0.00521915 3.22639e-19)
(-0.00043017 -0.00527289 4.35144e-19)
(-0.000431715 -0.00532683 1.36604e-20)
(-0.00043325 -0.00538096 -4.07755e-19)
(-0.000434774 -0.00543528 -2.7935e-19)
(-0.000436287 -0.00548979 1.47686e-19)
(-0.00043779 -0.00554449 7.97096e-20)
(-0.000439282 -0.00559938 -4.19051e-20)
(-0.000440764 -0.00565445 2.16085e-20)
(-0.000442235 -0.00570971 8.30063e-20)
(-0.000443696 -0.00576515 8.28497e-20)
(-0.000445146 -0.00582077 -4.34471e-20)
(-0.000446585 -0.00587657 1.5938e-20)
(-0.000448013 -0.00593256 -4.82237e-20)
(-0.000449431 -0.00598872 -1.04058e-19)
(-0.000450838 -0.00604505 3.36815e-19)
(-0.000452235 -0.00610156 2.63523e-19)
(-0.000453621 -0.00615825 -1.74062e-19)
(-0.000454997 -0.00621511 8.12629e-20)
(-0.000456361 -0.00627214 2.02387e-19)
(-0.000457716 -0.00632934 1.47969e-20)
(-0.000459059 -0.00638671 1.42457e-19)
(-0.000460392 -0.00644424 1.17763e-20)
(-0.000461715 -0.00650194 -4.37306e-19)
(-0.000463026 -0.00655981 -3.03327e-19)
(-0.000464327 -0.00661784 3.432e-19)
(-0.000465618 -0.00667603 4.66722e-19)
(-0.000466898 -0.00673438 1.13057e-20)
(-0.000468167 -0.0067929 -4.44049e-19)
(-0.000469426 -0.00685157 -3.07372e-19)
(-0.000470674 -0.00691039 1.52582e-19)
(-0.000471912 -0.00696937 8.44693e-20)
(-0.000473138 -0.00702851 1.69456e-20)
(-0.000474355 -0.0070878 8.02201e-20)
(-0.00047556 -0.00714724 1.64655e-20)
(-0.000476756 -0.00720683 1.63295e-20)
(-0.00047794 -0.00726656 -5.24611e-20)
(-0.000479114 -0.00732645 1.29888e-20)
(-0.000480277 -0.00738648 -5.53154e-20)
(-0.00048143 -0.00744666 -1.16858e-19)
(-0.000482572 -0.00750698 2.20118e-19)
(-0.000483703 -0.00756744 2.16829e-19)
(-0.000484824 -0.00762804 1.53107e-20)
(-0.000485934 -0.00768879 1.4531e-19)
(-0.000487034 -0.00774967 7.54376e-20)
(-0.000488122 -0.00781068 -3.93358e-19)
(-0.000489201 -0.00787184 -4.53984e-19)
(-0.000490268 -0.00793312 2.25297e-19)
(-0.000491325 -0.00799454 4.88231e-19)
(-0.000492372 -0.00805609 1.01627e-20)
(-0.000493408 -0.00811777 8.30545e-20)
(-0.000494433 -0.00817958 2.17076e-19)
(-0.000495447 -0.00824152 1.10685e-20)
(-0.000496451 -0.00830358 -5.989e-20)
(-0.000497445 -0.00836577 -2.65772e-19)
(-0.000498427 -0.00842808 -3.30085e-19)
(-0.000499399 -0.00849052 -1.19198e-19)
(-0.000500361 -0.00855307 1.58428e-19)
(-0.000501311 -0.00861575 1.53875e-19)
(-0.000502252 -0.00867854 8.35272e-20)
(-0.000503181 -0.00874145 8.25312e-20)
(-0.0005041 -0.00880447 -5.92303e-20)
(-0.000505008 -0.00886761 1.16799e-20)
(-0.000505906 -0.00893087 -5.98462e-20)
(-0.000506793 -0.00899423 -1.26218e-19)
(-0.00050767 -0.0090577 1.57151e-19)
(-0.000508536 -0.00912129 2.95193e-19)
(-0.000509391 -0.00918498 2.23157e-19)
(-0.000510235 -0.00924877 7.69811e-20)
(-0.000511069 -0.00931267 6.05432e-21)
(-0.000511893 -0.00937668 -3.4616e-19)
(-0.000512705 -0.00944079 -5.54247e-19)
(-0.000513508 -0.00950499 1.59904e-19)
(-0.000514299 -0.0095693 5.09381e-19)
(-0.00051508 -0.00963371 7.56394e-21)
(-0.00051585 -0.00969821 8.24326e-20)
(-0.00051661 -0.00976281 2.2345e-19)
(-0.000517359 -0.0098275 8.15338e-21)
(-0.000518097 -0.00989229 -6.53049e-20)
(-0.000518825 -0.00995717 -2.80519e-19)
(-0.000519542 -0.0100221 -3.49128e-19)
(-0.000520248 -0.0100872 8.53384e-20)
(-0.000520944 -0.0101523 4.45007e-19)
(-0.000521629 -0.0102176 8.03135e-20)
(-0.000522304 -0.0102829 -1.36462e-19)
(-0.000522968 -0.0103483 -6.42655e-20)
(-0.000523621 -0.0104138 -1.3778e-19)
(-0.000524264 -0.0104793 1.54e-19)
(-0.000524896 -0.010545 7.90359e-20)
(-0.000525518 -0.0106107 -2.84184e-19)
(-0.000526128 -0.0106765 8.32924e-20)
(-0.000526728 -0.0107424 3.75079e-19)
(-0.000527318 -0.0108083 3.01075e-19)
(-0.000527897 -0.0108743 3.00844e-21)
(-0.000528465 -0.0109404 -3.63038e-19)
(-0.000529023 -0.0110066 -4.33397e-19)
(-0.00052957 -0.0110728 -2.112e-19)
(-0.000530106 -0.0111391 2.30293e-19)
(-0.000530632 -0.0112055 3.01949e-19)
(-0.000531147 -0.0112719 8.0746e-20)
(-0.000531652 -0.0113384 1.54645e-19)
(-0.000532146 -0.011405 1.53163e-19)
(-0.000532629 -0.0114716 5.23742e-21)
(-0.000533102 -0.0115383 3.4495e-21)
(-0.000533564 -0.011605 -2.19158e-19)
(-0.000534016 -0.0116718 -4.38609e-19)
(-0.000534456 -0.0117386 -1.4042e-19)
(-0.000534887 -0.0118055 2.30356e-19)
(-0.000535306 -0.0118725 8.03439e-20)
(-0.000535715 -0.0119395 5.9634e-21)
(-0.000536113 -0.0120066 3.02659e-19)
(-0.000536501 -0.0120737 1.52458e-19)
(-0.000536878 -0.0121408 -7.01532e-20)
(-0.000537245 -0.012208 -1.45664e-19)
(-0.0005376 -0.0122753 -2.94292e-19)
(-0.000537946 -0.0123426 2.29982e-19)
(-0.00053828 -0.0124099 3.78299e-19)
(-0.000538604 -0.0124773 -1.4503e-19)
(-0.000538918 -0.0125447 -1.46017e-19)
(-0.00053922 -0.0126122 -7.16762e-20)
(-0.000539512 -0.0126797 -2.95914e-19)
(-0.000539794 -0.0127472 -2.20128e-19)
(-0.000540065 -0.0128147 2.29767e-19)
(-0.000540325 -0.0128823 3.03722e-19)
(-0.000540574 -0.01295 7.84283e-20)
(-0.000540813 -0.0130176 1.53506e-19)
(-0.000541042 -0.0130853 1.52753e-19)
(-0.000541259 -0.013153 2.32155e-21)
(-0.000541467 -0.0132208 1.86495e-21)
(-0.000541663 -0.0132885 -2.24059e-19)
(-0.000541849 -0.0133563 -4.49019e-19)
(-0.000542024 -0.0134241 -1.47453e-19)
(-0.000542189 -0.013492 2.28761e-19)
(-0.000542343 -0.0135598 7.74892e-20)
(-0.000542486 -0.0136277 2.0411e-21)
(-0.000542619 -0.0136956 3.03077e-19)
(-0.000542741 -0.0137635 1.51939e-19)
(-0.000542853 -0.0138314 -7.40483e-20)
(-0.000542955 -0.0138993 -1.49874e-19)
(-0.000543046 -0.0139673 -3.0069e-19)
(-0.000543128 -0.0140352 2.2768e-19)
(-0.000543201 -0.0141032 3.78215e-19)
(-0.000543265 -0.0141712 -1.5009e-19)
(-0.000543321 -0.0142392 -1.50334e-19)
(-0.000543371 -0.0143071 -7.50275e-20)
(-0.000543417 -0.0143752 -3.016e-19)
(-0.000543465 -0.0144432 8.32617e-19)
(-0.000543495 -0.0145113 -3.93041e-18)
(-3.39722e-23 -2.53432e-22 0)
(-3.28642e-06 -2.33155e-06 0)
(-6.38023e-06 -3.80553e-06 0)
(-9.45914e-06 -5.30907e-06 0)
(-1.2512e-05 -7.02494e-06 0)
(-1.55804e-05 -9.05332e-06 0)
(-1.8654e-05 -1.14437e-05 0)
(-2.17359e-05 -1.4222e-05 0)
(-2.48197e-05 -1.74011e-05 0)
(-2.79031e-05 -2.09875e-05 0)
(-3.09828e-05 -2.49839e-05 0)
(-3.4057e-05 -2.93909e-05 0)
(-3.7124e-05 -3.42082e-05 0)
(-4.01831e-05 -3.94347e-05 0)
(-4.32333e-05 -4.50694e-05 0)
(-4.62745e-05 -5.11107e-05 0)
(-4.9306e-05 -5.75577e-05 0)
(-5.2328e-05 -6.44077e-05 0)
(-5.53408e-05 -7.16573e-05 0)
(-5.83384e-05 -7.93107e-05 0)
(-6.13264e-05 -8.73672e-05 0)
(-6.4308e-05 -9.58194e-05 0)
(-6.7279e-05 -0.000104667 0)
(-7.0241e-05 -0.000113911 0)
(-7.31929e-05 -0.000123549 0)
(-7.61349e-05 -0.00013358 0)
(-7.90669e-05 -0.000144002 0)
(-8.1989e-05 -0.000154815 0)
(-8.49011e-05 -0.000166017 0)
(-8.78032e-05 -0.000177606 0)
(-9.06954e-05 -0.000189582 0)
(-9.35777e-05 -0.000201943 0)
(-9.645e-05 -0.000214687 0)
(-9.93123e-05 -0.000227813 0)
(-0.000102165 -0.000241321 0)
(-0.000105007 -0.000255208 0)
(-0.00010784 -0.000269474 0)
(-0.000110662 -0.000284116 0)
(-0.000113475 -0.000299135 0)
(-0.000116278 -0.000314527 0)
(-0.000119071 -0.000330293 0)
(-0.000121854 -0.000346431 0)
(-0.000124627 -0.000362939 0)
(-0.000127389 -0.000379817 0)
(-0.000130142 -0.000397061 0)
(-0.000132885 -0.000414671 0)
(-0.000135618 -0.000432646 0)
(-0.000138341 -0.000450985 0)
(-0.000141054 -0.000469687 0)
(-0.000143757 -0.00048875 0)
(-0.00014645 -0.000508173 0)
(-0.000149134 -0.000527954 0)
(-0.000151807 -0.000548093 0)
(-0.00015447 -0.000568587 0)
(-0.000157123 -0.000589435 0)
(-0.000159766 -0.000610637 0)
(-0.0001624 -0.00063219 0)
(-0.000165023 -0.000654094 0)
(-0.000167636 -0.000676347 0)
(-0.00017024 -0.000698948 0)
(-0.000172833 -0.000721895 0)
(-0.000175417 -0.000745188 0)
(-0.00017799 -0.000768824 0)
(-0.000180554 -0.000792802 0)
(-0.000183108 -0.000817122 0)
(-0.000185651 -0.000841782 0)
(-0.000188185 -0.00086678 0)
(-0.000190709 -0.000892115 0)
(-0.000193223 -0.000917786 0)
(-0.000195727 -0.000943792 0)
(-0.000198221 -0.000970131 0)
(-0.000200705 -0.000996802 0)
(-0.000203179 -0.0010238 0)
(-0.000205643 -0.00105113 0)
(-0.000208096 -0.00107879 0)
(-0.00021054 -0.00110678 0)
(-0.000212971 -0.00113508 0)
(-0.000215391 -0.00116372 0)
(-0.000217806 -0.00119268 0)
(-0.000220211 -0.00122195 0)
(-0.000222606 -0.00125155 0)
(-0.000224991 -0.00128147 0)
(-0.000227366 -0.0013117 0)
(-0.00022973 -0.00134225 0)
(-0.000232084 -0.00137311 0)
(-0.000234429 -0.00140429 0)
(-0.000236764 -0.00143578 0)
(-0.000239088 -0.00146758 0)
(-0.000241403 -0.00149969 0)
(-0.000243708 -0.0015321 0)
(-0.000246002 -0.00156483 0)
(-0.000248287 -0.00159786 0)
(-0.000250562 -0.00163119 0)
(-0.000252827 -0.00166482 0)
(-0.000255082 -0.00169876 0)
(-0.000257327 -0.001733 0)
(-0.000259562 -0.00176753 0)
(-0.000261787 -0.00180237 0)
(-0.000264003 -0.0018375 0)
(-0.000266208 -0.00187292 0)
(-0.000268404 -0.00190864 0)
(-0.000270589 -0.00194465 0)
(-0.000272764 -0.00198094 0)
(-0.00027493 -0.00201753 0)
(-0.000277086 -0.00205441 0)
(-0.000279231 -0.00209158 0)
(-0.000281367 -0.00212902 0)
(-0.000283493 -0.00216676 0)
(-0.000285609 -0.00220477 0)
(-0.000287715 -0.00224307 0)
(-0.00028981 -0.00228165 0)
(-0.000291896 -0.00232051 0)
(-0.000293973 -0.00235964 0)
(-0.000296039 -0.00239905 0)
(-0.000298095 -0.00243874 0)
(-0.000300141 -0.00247869 0)
(-0.000302177 -0.00251893 0)
(-0.000304203 -0.00255943 0)
(-0.000306219 -0.0026002 0)
(-0.000308226 -0.00264124 0)
(-0.000310222 -0.00268254 0)
(-0.000312208 -0.00272411 0)
(-0.000314185 -0.00276595 0)
(-0.000316151 -0.00280805 0)
(-0.000318108 -0.00285041 0)
(-0.000320055 -0.00289303 0)
(-0.000321991 -0.00293591 0)
(-0.000323918 -0.00297905 0)
(-0.000325835 -0.00302244 0)
(-0.000327742 -0.00306609 0)
(-0.000329638 -0.00310999 0)
(-0.000331525 -0.00315414 0)
(-0.000333402 -0.00319855 0)
(-0.000335269 -0.0032432 0)
(-0.000337126 -0.0032881 0)
(-0.000338973 -0.00333325 0)
(-0.000340811 -0.00337865 0)
(-0.000342638 -0.00342429 0)
(-0.000344455 -0.00347017 0)
(-0.000346262 -0.0035163 0)
(-0.00034806 -0.00356266 0)
(-0.000349847 -0.00360926 0)
(-0.000351624 -0.0036561 0)
(-0.000353392 -0.00370318 0)
(-0.000355149 -0.00375049 0)
(-0.000356897 -0.00379804 0)
(-0.000358635 -0.00384582 0)
(-0.000360362 -0.00389383 0)
(-0.00036208 -0.00394207 0)
(-0.000363788 -0.00399053 0)
(-0.000365486 -0.00403923 0)
(-0.000367174 -0.00408815 0)
(-0.000368852 -0.00413729 0)
(-0.000370521 -0.00418666 0)
(-0.000372179 -0.00423625 0)
(-0.000373828 -0.00428606 0)
(-0.000375467 -0.00433609 0)
(-0.000377096 -0.00438634 0)
(-0.000378714 -0.0044368 0)
(-0.000380323 -0.00448748 0)
(-0.000381921 -0.00453837 0)
(-0.00038351 -0.00458948 0)
(-0.000385089 -0.00464079 0)
(-0.000386657 -0.00469232 0)
(-0.000388216 -0.00474405 0)
(-0.000389764 -0.004796 0)
(-0.000391303 -0.00484814 0)
(-0.000392831 -0.00490049 0)
(-0.00039435 -0.00495305 0)
(-0.000395859 -0.00500581 0)
(-0.000397357 -0.00505876 0)
(-0.000398846 -0.00511192 0)
(-0.000400325 -0.00516527 0)
(-0.000401793 -0.00521883 0)
(-0.000403252 -0.00527257 0)
(-0.000404701 -0.00532651 0)
(-0.00040614 -0.00538064 0)
(-0.000407569 -0.00543497 0)
(-0.000408988 -0.00548948 0)
(-0.000410397 -0.00554418 0)
(-0.000411796 -0.00559907 0)
(-0.000413185 -0.00565415 0)
(-0.000414564 -0.0057094 0)
(-0.000415933 -0.00576485 0)
(-0.000417292 -0.00582047 0)
(-0.000418641 -0.00587628 0)
(-0.000419981 -0.00593226 0)
(-0.00042131 -0.00598842 0)
(-0.000422629 -0.00604476 0)
(-0.000423939 -0.00610128 0)
(-0.000425238 -0.00615797 0)
(-0.000426527 -0.00621483 0)
(-0.000427807 -0.00627186 0)
(-0.000429077 -0.00632906 0)
(-0.000430336 -0.00638643 0)
(-0.000431586 -0.00644397 0)
(-0.000432826 -0.00650167 0)
(-0.000434055 -0.00655954 0)
(-0.000435275 -0.00661757 0)
(-0.000436485 -0.00667577 0)
(-0.000437685 -0.00673412 0)
(-0.000438875 -0.00679264 0)
(-0.000440055 -0.00685131 0)
(-0.000441225 -0.00691014 0)
(-0.000442385 -0.00696912 0)
(-0.000443536 -0.00702826 0)
(-0.000444676 -0.00708755 0)
(-0.000445806 -0.00714699 0)
(-0.000446926 -0.00720658 0)
(-0.000448037 -0.00726632 0)
(-0.000449137 -0.00732621 0)
(-0.000450228 -0.00738624 0)
(-0.000451308 -0.00744642 0)
(-0.000452379 -0.00750674 0)
(-0.00045344 -0.00756721 0)
(-0.000454491 -0.00762781 0)
(-0.000455531 -0.00768856 0)
(-0.000456562 -0.00774944 0)
(-0.000457583 -0.00781046 0)
(-0.000458594 -0.00787162 0)
(-0.000459595 -0.0079329 0)
(-0.000460586 -0.00799433 0)
(-0.000461567 -0.00805588 0)
(-0.000462538 -0.00811756 0)
(-0.000463499 -0.00817937 0)
(-0.00046445 -0.00824131 0)
(-0.000465391 -0.00830338 0)
(-0.000466322 -0.00836557 0)
(-0.000467244 -0.00842788 0)
(-0.000468155 -0.00849032 0)
(-0.000469056 -0.00855288 0)
(-0.000469948 -0.00861555 0)
(-0.000470829 -0.00867835 0)
(-0.000471701 -0.00874126 0)
(-0.000472562 -0.00880429 0)
(-0.000473414 -0.00886743 0)
(-0.000474255 -0.00893068 0)
(-0.000475087 -0.00899405 0)
(-0.000475909 -0.00905752 0)
(-0.00047672 -0.00912111 0)
(-0.000477522 -0.0091848 0)
(-0.000478314 -0.0092486 0)
(-0.000479096 -0.0093125 0)
(-0.000479868 -0.00937651 0)
(-0.00048063 -0.00944062 0)
(-0.000481382 -0.00950483 0)
(-0.000482124 -0.00956914 0)
(-0.000482856 -0.00963355 0)
(-0.000483578 -0.00969805 0)
(-0.00048429 -0.00976266 0)
(-0.000484992 -0.00982735 0)
(-0.000485684 -0.00989214 0)
(-0.000486366 -0.00995702 0)
(-0.000487039 -0.010022 0)
(-0.000487701 -0.010087 0)
(-0.000488353 -0.0101522 0)
(-0.000488996 -0.0102174 0)
(-0.000489628 -0.0102827 0)
(-0.000490251 -0.0103481 0)
(-0.000490863 -0.0104136 0)
(-0.000491466 -0.0104792 0)
(-0.000492058 -0.0105448 0)
(-0.000492641 -0.0106106 0)
(-0.000493213 -0.0106764 0)
(-0.000493776 -0.0107422 0)
(-0.000494329 -0.0108082 0)
(-0.000494872 -0.0108742 0)
(-0.000495404 -0.0109403 0)
(-0.000495927 -0.0110065 0)
(-0.00049644 -0.0110727 0)
(-0.000496943 -0.011139 0)
(-0.000497436 -0.0112054 0)
(-0.000497919 -0.0112718 0)
(-0.000498392 -0.0113383 0)
(-0.000498855 -0.0114049 0)
(-0.000499308 -0.0114715 0)
(-0.000499751 -0.0115382 0)
(-0.000500184 -0.0116049 0)
(-0.000500608 -0.0116717 0)
(-0.000501021 -0.0117386 0)
(-0.000501424 -0.0118055 0)
(-0.000501818 -0.0118724 0)
(-0.000502201 -0.0119394 0)
(-0.000502574 -0.0120065 0)
(-0.000502938 -0.0120736 0)
(-0.000503291 -0.0121408 0)
(-0.000503635 -0.012208 0)
(-0.000503969 -0.0122752 0)
(-0.000504292 -0.0123425 0)
(-0.000504606 -0.0124098 0)
(-0.00050491 -0.0124772 0)
(-0.000505203 -0.0125446 0)
(-0.000505487 -0.0126121 0)
(-0.000505761 -0.0126796 0)
(-0.000506025 -0.0127471 0)
(-0.000506279 -0.0128147 0)
(-0.000506523 -0.0128823 0)
(-0.000506757 -0.0129499 0)
(-0.000506981 -0.0130176 0)
(-0.000507195 -0.0130853 0)
(-0.000507399 -0.013153 0)
(-0.000507593 -0.0132207 0)
(-0.000507777 -0.0132885 0)
(-0.000507951 -0.0133563 0)
(-0.000508116 -0.0134241 0)
(-0.00050827 -0.0134919 0)
(-0.000508414 -0.0135598 0)
(-0.000508549 -0.0136277 0)
(-0.000508673 -0.0136955 0)
(-0.000508788 -0.0137635 0)
(-0.000508893 -0.0138314 0)
(-0.000508988 -0.0138993 0)
(-0.000509074 -0.0139673 0)
(-0.000509151 -0.0140352 0)
(-0.000509218 -0.0141032 0)
(-0.000509277 -0.0141712 0)
(-0.000509328 -0.0142391 0)
(-0.000509371 -0.0143071 0)
(-0.000509407 -0.0143751 0)
(-0.000509436 -0.0144432 0)
(-0.000509453 -0.0145113 -1.21146e-18)
(-1.46937e-39 -1.05879e-22 0)
(-2.83415e-06 -1.77694e-06 0)
(-5.75428e-06 -3.1808e-06 0)
(-8.67209e-06 -4.67242e-06 0)
(-1.15681e-05 -6.38486e-06 0)
(-1.4463e-05 -8.41148e-06 0)
(-1.73525e-05 -1.08012e-05 0)
(-2.02417e-05 -1.35791e-05 0)
(-2.31277e-05 -1.67586e-05 0)
(-2.60102e-05 -2.03458e-05 0)
(-2.88872e-05 -2.43434e-05 0)
(-3.17579e-05 -2.87519e-05 0)
(-3.46213e-05 -3.35708e-05 0)
(-3.74768e-05 -3.87992e-05 0)
(-4.03238e-05 -4.44357e-05 0)
(-4.31625e-05 -5.04789e-05 0)
(-4.59919e-05 -5.69278e-05 0)
(-4.88149e-05 -6.37798e-05 0)
(-5.1626e-05 -7.10326e-05 0)
(-5.44182e-05 -7.86888e-05 0)
(-5.72072e-05 -8.67462e-05 0)
(-5.99927e-05 -9.52001e-05 0)
(-6.27661e-05 -0.00010405 0)
(-6.55309e-05 -0.000113296 0)
(-6.8286e-05 -0.000122936 0)
(-7.10319e-05 -0.000132969 0)
(-7.37685e-05 -0.000143393 0)
(-7.64957e-05 -0.000154208 0)
(-7.92137e-05 -0.000165412 0)
(-8.19224e-05 -0.000177003 0)
(-8.46218e-05 -0.000188981 0)
(-8.73118e-05 -0.000201344 0)
(-8.99927e-05 -0.00021409 0)
(-9.26642e-05 -0.000227219 0)
(-9.53264e-05 -0.000240729 0)
(-9.79794e-05 -0.000254618 0)
(-0.000100623 -0.000268886 0)
(-0.000103258 -0.00028353 0)
(-0.000105883 -0.000298551 0)
(-0.000108499 -0.000313945 0)
(-0.000111105 -0.000329713 0)
(-0.000113703 -0.000345853 0)
(-0.000116291 -0.000362364 0)
(-0.00011887 -0.000379243 0)
(-0.000121439 -0.000396489 0)
(-0.000123999 -0.000414101 0)
(-0.00012655 -0.000432079 0)
(-0.000129091 -0.00045042 0)
(-0.000131623 -0.000469124 0)
(-0.000134146 -0.000488189 0)
(-0.00013666 -0.000507614 0)
(-0.000139164 -0.000527397 0)
(-0.000141659 -0.000547538 0)
(-0.000144145 -0.000568034 0)
(-0.000146621 -0.000588885 0)
(-0.000149088 -0.000610088 0)
(-0.000151546 -0.000631644 0)
(-0.000153994 -0.00065355 0)
(-0.000156433 -0.000675805 0)
(-0.000158863 -0.000698407 0)
(-0.000161284 -0.000721357 0)
(-0.000163695 -0.000744651 0)
(-0.000166097 -0.000768289 0)
(-0.00016849 -0.00079227 0)
(-0.000170873 -0.000816592 0)
(-0.000173247 -0.000841254 0)
(-0.000175612 -0.000866254 0)
(-0.000177968 -0.000891591 0)
(-0.000180314 -0.000917265 0)
(-0.000182651 -0.000943272 0)
(-0.000184979 -0.000969613 0)
(-0.000187297 -0.000996286 0)
(-0.000189606 -0.00102329 0)
(-0.000191906 -0.00105062 0)
(-0.000194196 -0.00107828 0)
(-0.000196479 -0.00110627 0)
(-0.000198749 -0.00113458 0)
(-0.000201003 -0.00116321 0)
(-0.000203257 -0.00119217 0)
(-0.000205503 -0.00122145 0)
(-0.000207738 -0.00125105 0)
(-0.000209964 -0.00128097 0)
(-0.00021218 -0.00131121 0)
(-0.000214387 -0.00134176 0)
(-0.000216585 -0.00137262 0)
(-0.000218773 -0.0014038 0)
(-0.000220952 -0.00143529 0)
(-0.000223121 -0.0014671 0)
(-0.000225282 -0.00149921 0)
(-0.000227433 -0.00153163 0)
(-0.000229575 -0.00156435 0)
(-0.000231707 -0.00159738 0)
(-0.000233831 -0.00163072 0)
(-0.000235945 -0.00166435 0)
(-0.000238049 -0.00169829 0)
(-0.000240145 -0.00173253 0)
(-0.000242231 -0.00176707 0)
(-0.000244307 -0.00180191 0)
(-0.000246375 -0.00183704 0)
(-0.000248433 -0.00187246 0)
(-0.000250482 -0.00190818 0)
(-0.000252522 -0.00194419 0)
(-0.000254553 -0.00198049 0)
(-0.000256574 -0.00201708 0)
(-0.000258586 -0.00205396 0)
(-0.000260588 -0.00209113 0)
(-0.000262582 -0.00212858 0)
(-0.000264566 -0.00216632 0)
(-0.000266541 -0.00220433 0)
(-0.000268506 -0.00224263 0)
(-0.000270462 -0.00228121 0)
(-0.000272409 -0.00232007 0)
(-0.000274347 -0.00235921 0)
(-0.000276275 -0.00239862 0)
(-0.000278194 -0.00243831 0)
(-0.000280104 -0.00247827 0)
(-0.000282004 -0.0025185 0)
(-0.000283895 -0.00255901 0)
(-0.000285777 -0.00259978 0)
(-0.00028765 -0.00264082 0)
(-0.000289513 -0.00268213 0)
(-0.000291367 -0.0027237 0)
(-0.000293212 -0.00276554 0)
(-0.000295047 -0.00280764 0)
(-0.000296873 -0.00285 0)
(-0.00029869 -0.00289263 0)
(-0.000300498 -0.00293551 0)
(-0.000302296 -0.00297865 0)
(-0.000304085 -0.00302204 0)
(-0.000305865 -0.00306569 0)
(-0.000307635 -0.0031096 0)
(-0.000309396 -0.00315375 0)
(-0.000311148 -0.00319816 0)
(-0.00031289 -0.00324281 0)
(-0.000314624 -0.00328772 0)
(-0.000316348 -0.00333287 0)
(-0.000318062 -0.00337827 0)
(-0.000319768 -0.00342391 0)
(-0.000321464 -0.00346979 0)
(-0.000323151 -0.00351592 0)
(-0.000324828 -0.00356229 0)
(-0.000326496 -0.00360889 0)
(-0.000328155 -0.00365574 0)
(-0.000329805 -0.00370281 0)
(-0.000331445 -0.00375013 0)
(-0.000333076 -0.00379768 0)
(-0.000334698 -0.00384546 0)
(-0.000336311 -0.00389347 0)
(-0.000337914 -0.00394171 0)
(-0.000339508 -0.00399018 0)
(-0.000341092 -0.00403888 0)
(-0.000342668 -0.0040878 0)
(-0.000344234 -0.00413695 0)
(-0.000345791 -0.00418632 0)
(-0.000347339 -0.00423591 0)
(-0.000348878 -0.00428572 0)
(-0.000350408 -0.00433575 0)
(-0.000351928 -0.004386 0)
(-0.000353439 -0.00443647 0)
(-0.000354941 -0.00448715 0)
(-0.000356433 -0.00453804 0)
(-0.000357915 -0.00458915 0)
(-0.000359389 -0.00464047 0)
(-0.000360853 -0.00469199 0)
(-0.000362307 -0.00474373 0)
(-0.000363752 -0.00479567 0)
(-0.000365188 -0.00484782 0)
(-0.000366615 -0.00490018 0)
(-0.000368032 -0.00495273 0)
(-0.00036944 -0.00500549 0)
(-0.000370839 -0.00505845 0)
(-0.000372229 -0.00511161 0)
(-0.000373609 -0.00516497 0)
(-0.00037498 -0.00521852 0)
(-0.000376341 -0.00527227 0)
(-0.000377693 -0.00532621 0)
(-0.000379036 -0.00538035 0)
(-0.00038037 -0.00543467 0)
(-0.000381694 -0.00548919 0)
(-0.000383009 -0.00554389 0)
(-0.000384315 -0.00559878 0)
(-0.000385611 -0.00565386 0)
(-0.000386899 -0.00570912 0)
(-0.000388177 -0.00576456 0)
(-0.000389445 -0.00582019 0)
(-0.000390704 -0.005876 0)
(-0.000391954 -0.00593198 0)
(-0.000393195 -0.00598815 0)
(-0.000394426 -0.00604449 0)
(-0.000395648 -0.00610101 0)
(-0.000396861 -0.0061577 0)
(-0.000398065 -0.00621456 0)
(-0.000399259 -0.00627159 0)
(-0.000400444 -0.0063288 0)
(-0.000401619 -0.00638617 0)
(-0.000402786 -0.00644371 0)
(-0.000403943 -0.00650142 0)
(-0.000405091 -0.00655929 0)
(-0.000406229 -0.00661732 0)
(-0.000407358 -0.00667552 0)
(-0.000408478 -0.00673387 0)
(-0.000409589 -0.00679239 0)
(-0.00041069 -0.00685106 0)
(-0.000411783 -0.00690989 0)
(-0.000412865 -0.00696888 0)
(-0.000413939 -0.00702802 0)
(-0.000415003 -0.00708731 0)
(-0.000416058 -0.00714676 0)
(-0.000417104 -0.00720635 0)
(-0.00041814 -0.00726609 0)
(-0.000419167 -0.00732598 0)
(-0.000420185 -0.00738602 0)
(-0.000421194 -0.0074462 0)
(-0.000422193 -0.00750652 0)
(-0.000423183 -0.00756699 0)
(-0.000424164 -0.0076276 0)
(-0.000425135 -0.00768834 0)
(-0.000426097 -0.00774923 0)
(-0.00042705 -0.00781025 0)
(-0.000427993 -0.00787141 0)
(-0.000428928 -0.0079327 0)
(-0.000429853 -0.00799412 0)
(-0.000430768 -0.00805568 0)
(-0.000431674 -0.00811736 0)
(-0.000432572 -0.00817917 0)
(-0.000433459 -0.00824112 0)
(-0.000434338 -0.00830318 0)
(-0.000435207 -0.00836538 0)
(-0.000436067 -0.00842769 0)
(-0.000436917 -0.00849013 0)
(-0.000437758 -0.00855269 0)
(-0.00043859 -0.00861537 0)
(-0.000439413 -0.00867817 0)
(-0.000440226 -0.00874108 0)
(-0.00044103 -0.00880411 0)
(-0.000441825 -0.00886725 0)
(-0.000442611 -0.00893051 0)
(-0.000443387 -0.00899388 0)
(-0.000444154 -0.00905735 0)
(-0.000444911 -0.00912094 0)
(-0.00044566 -0.00918464 0)
(-0.000446399 -0.00924844 0)
(-0.000447128 -0.00931234 0)
(-0.000447849 -0.00937635 0)
(-0.00044856 -0.00944046 0)
(-0.000449262 -0.00950468 0)
(-0.000449954 -0.00956899 0)
(-0.000450638 -0.0096334 0)
(-0.000451312 -0.00969791 0)
(-0.000451976 -0.00976251 0)
(-0.000452632 -0.00982721 0)