/*--------------------------------*- C++ -*----------------------------------*\
| =========                 |                                                 |
| \\      /  F ield         | foam-extend: Open Source CFD                    |
|  \\    /   O peration     | Version:     4.0                                |
|   \\  /    A nd           | Web:         http://www.foam-extend.org         |
|    \\/     M anipulation  |                                                 |
\*---------------------------------------------------------------------------*/
FoamFile
{
    version     2.0;
    format      ascii;
    class       volSymmTensorField;
    location    "1";
    object      sigma;
}
// * * * * * * * * * * * * * * * * * * * * * * * * * * * * * * * * * * * * * //

dimensions      [1 -1 -2 0 0 0 0];

internalField   nonuniform List<symmTensor> 
10240
(
(-1.27904e+08 -1.02696e+07 -3.24964e-08 -6.92465e+06 -1.65772e-08 -4.04484e+07)
(-1.1118e+08 -2.08063e+06 -5.77798e-07 -475494 -2.93288e-07 -3.34967e+07)
(-1.10988e+08 -167210 -7.26771e-07 -381092 -3.52447e-08 -3.34106e+07)
(-1.10048e+08 108001 3.25236e-06 -284975 1.10382e-06 -3.30998e+07)
(-1.11047e+08 190027 -1.0992e-06 -365204 -3.65344e-07 -3.34236e+07)
(-1.1147e+08 139374 -2.4346e-06 -392621 -8.17409e-07 -3.35589e+07)
(-1.11943e+08 85924.1 1.21818e-06 -421932 2.95652e-07 -3.37094e+07)
(-1.12111e+08 35515.6 -1.39141e-06 -435076 -2.9602e-07 -3.37639e+07)
(-1.1216e+08 -2930.98 1.56801e-06 -444724 2.96091e-07 -3.37816e+07)
(-1.1206e+08 -30906.6 -1.74614e-06 -448919 -2.95798e-07 -3.37528e+07)
(-1.11881e+08 -50352.4 1.88958e-07 -451336 -9.08891e-07 -3.36996e+07)
(-1.11632e+08 -63397.4 3.15567e-06 -451792 4.41957e-07 -3.36251e+07)
(-1.11347e+08 -71907.2 4.01006e-06 -451813 1.72197e-06 -3.35395e+07)
(-1.11027e+08 -77444.3 -1.77153e-06 -450596 3.22806e-07 -3.34434e+07)
(-1.10702e+08 -80941.3 6.32081e-07 -451158 -5.14206e-07 -3.33459e+07)
(-1.10345e+08 -85696.3 6.84852e-07 -446498 7.04627e-07 -3.32374e+07)
(-1.09989e+08 -88092.6 -4.61814e-06 -457836 9.16959e-07 -3.31339e+07)
(-1.09625e+08 -93296.4 -4.52709e-06 -427542 -1.87422e-06 -3.30158e+07)
(-1.09132e+08 -130410 -3.34122e-06 -392602 -2.88346e-07 -3.28575e+07)
(-1.08815e+08 -77890.3 -1.0844e-06 -462741 7.37008e-07 -3.27834e+07)
(-1.08519e+08 -88167.7 -2.02043e-06 -454630 -2.77157e-06 -3.2692e+07)
(-1.08146e+08 -82682.5 5.38159e-06 -439296 -2.81393e-06 -3.25755e+07)
(-1.07816e+08 -85327.7 1.48034e-05 -439371 2.00627e-06 -3.24768e+07)
(-1.07447e+08 -86256.7 7.9832e-06 -436306 3.05898e-06 -3.23649e+07)
(-1.07091e+08 -86630.5 6.64653e-07 -435173 1.0964e-06 -3.22579e+07)
(-1.06726e+08 -86846.5 -6.62389e-07 -433494 -1.13921e-06 -3.21479e+07)
(-1.06365e+08 -86879.4 9.50055e-06 -432078 -3.43476e-06 -3.20391e+07)
(-1.06002e+08 -86887.9 1.77886e-05 -430565 2.20359e-06 -3.19297e+07)
(-1.0564e+08 -86865.9 6.04745e-06 -429106 2.17897e-06 -3.18206e+07)
(-1.05277e+08 -86837.9 1.04658e-05 -427624 5.55712e-07 -3.17114e+07)
(-1.04915e+08 -86805.9 8.75298e-06 -426160 1.76643e-06 -3.16023e+07)
(-1.04553e+08 -86772.3 4.92007e-06 -424696 -1.11707e-06 -3.14932e+07)
(-1.04191e+08 -86730.4 5.73614e-06 -423242 2.74989e-07 -3.13842e+07)
(-1.03829e+08 -86684.5 8.85409e-06 -421776 4.11051e-07 -3.12752e+07)
(-1.03468e+08 -86619.1 1.27796e-05 -420326 2.06412e-06 -3.11664e+07)
(-1.03106e+08 -86561.8 1.06311e-05 -418857 3.52682e-06 -3.10575e+07)
(-1.02746e+08 -86477.6 -1.59421e-06 -417444 -4.00132e-06 -3.09489e+07)
(-1.02385e+08 -86512.6 2.64622e-06 -415932 -1.50649e-06 -3.08401e+07)
(-1.02024e+08 -86516.4 1.04072e-05 -414578 1.24517e-06 -3.07316e+07)
(-1.01662e+08 -87007.7 5.31281e-06 -412894 -4.04e-06 -3.06226e+07)
(-1.01299e+08 -87383.5 2.43703e-05 -411630 5.37591e-08 -3.05131e+07)
(-1.00934e+08 -88487.2 1.08221e-05 -409646 3.99592e-07 -3.0403e+07)
(-1.00561e+08 -89081.3 2.67524e-05 -408318 3.69615e-06 -3.02909e+07)
(-1.00194e+08 -86185.9 8.46934e-06 -407268 3.0918e-06 -3.01804e+07)
(-9.98415e+07 -84489.9 -1.54915e-06 -404847 -4.81227e-06 -3.00739e+07)
(-9.94858e+07 -86296.8 3.14252e-05 -404092 1.05029e-06 -2.9967e+07)
(-9.91227e+07 -87015.8 2.00385e-05 -402695 6.54031e-07 -2.98576e+07)
(-9.87597e+07 -87371.4 2.92217e-05 -401226 2.95655e-06 -2.97483e+07)
(-9.83949e+07 -87529.9 9.1602e-07 -399808 3.12562e-06 -2.96384e+07)
(-9.80306e+07 -87414.8 -1.52105e-06 -398250 -5.30769e-06 -2.95287e+07)
(-9.76668e+07 -87353.1 3.02607e-05 -396782 9.02195e-07 -2.94191e+07)
(-9.73033e+07 -87249.9 8.80207e-06 -395265 2.56811e-07 -2.93096e+07)
(-9.69403e+07 -87198.3 3.19533e-05 -393790 3.13567e-06 -2.92002e+07)
(-9.65776e+07 -87156.2 1.4568e-05 -392303 3.80073e-06 -2.9091e+07)
(-9.62151e+07 -87137 -1.49288e-06 -390834 -5.79381e-06 -2.89818e+07)
(-9.58527e+07 -87123.6 3.35677e-05 -389359 3.24142e-06 -2.88726e+07)
(-9.54903e+07 -87116.8 -4.41512e-20 -387887 -1.60037e-19 -2.87635e+07)
(-9.5128e+07 -87108.7 3.40434e-05 -386414 8.78744e-07 -2.86543e+07)
(-9.47658e+07 -87100.3 -7.05441e-20 -384942 -2.74846e-19 -2.85452e+07)
(-9.44035e+07 -87091.4 1.50454e-05 -383471 3.73736e-07 -2.84361e+07)
(-9.40413e+07 -87082.8 8.7549e-07 -382001 3.81911e-06 -2.8327e+07)
(-9.3679e+07 -87072.8 -5.81412e-07 -380531 -2.58365e-06 -2.82179e+07)
(-9.33168e+07 -87061.8 1.15833e-06 -379058 5.24218e-06 -2.81087e+07)
(-9.29545e+07 -87051.5 -1.06304e-05 -377582 -2.45333e-07 -2.79996e+07)
(-9.25923e+07 -87043.1 -1.14933e-06 -376106 -5.39107e-06 -2.78905e+07)
(-9.223e+07 -87039.5 1.14995e-05 -374629 2.97596e-06 -2.77814e+07)
(-9.18679e+07 -87041.8 1.02192e-05 -373167 -3.91163e-06 -2.76723e+07)
(-9.15053e+07 -87054.5 4.54533e-05 -371683 3.77214e-06 -2.75631e+07)
(-9.11435e+07 -87096.2 8.48513e-07 -370242 4.26402e-06 -2.74541e+07)
(-9.07798e+07 -87168.2 -1.12684e-06 -368708 -5.75821e-06 -2.73446e+07)
(-9.0419e+07 -87396.8 1.16584e-05 -367402 2.3864e-07 -2.72359e+07)
(-9.005e+07 -87770 2.33265e-05 -365628 -1.00042e-06 -2.71247e+07)
(-8.96928e+07 -88591.1 1.90336e-05 -365467 6.33009e-06 -2.70175e+07)
(-8.93015e+07 -90844.5 -1.20902e-05 -362653 -2.35692e-07 -2.68992e+07)
(-8.89465e+07 -86290.8 4.18426e-06 -372668 -1.05889e-05 -2.67957e+07)
(-8.85281e+07 -94675.8 4.46816e-05 -376438 8.5531e-06 -2.66714e+07)
(-8.8128e+07 -50869.2 -1.25181e-05 -316523 -2.32852e-07 -2.65333e+07)
(-8.78756e+07 -80742.5 3.11017e-05 -342166 -2.58538e-06 -2.64653e+07)
(-8.75199e+07 -83515 8.14741e-07 -364905 4.80044e-06 -2.63655e+07)
(-8.71675e+07 -83921.6 -1.34789e-05 -352755 -3.46528e-06 -2.62561e+07)
(-8.68169e+07 -88585.8 -2.6941e-07 -353664 -1.63508e-06 -2.61512e+07)
(-8.64367e+07 -90034.8 1.87515e-05 -351612 -6.26756e-06 -2.60365e+07)
(-8.60685e+07 -88390.5 4.00632e-05 -349803 6.81474e-07 -2.59255e+07)
(-8.57026e+07 -87548.7 2.13017e-05 -348047 7.08681e-06 -2.58152e+07)
(-8.534e+07 -87043.2 2.64828e-07 -346617 1.70399e-06 -2.5706e+07)
(-8.49785e+07 -86766.6 -2.63707e-07 -345060 -1.72104e-06 -2.55971e+07)
(-8.46176e+07 -86792.9 1.98012e-05 -343691 -6.61705e-06 -2.54884e+07)
(-8.42564e+07 -86868.4 4.21087e-05 -342205 6.6713e-07 -2.53796e+07)
(-8.38946e+07 -87046.6 2.22977e-05 -340786 7.41913e-06 -2.52706e+07)
(-8.35323e+07 -87083.3 7.77655e-07 -339344 5.36553e-06 -2.51615e+07)
(-8.31698e+07 -87116.1 -1.46966e-05 -337852 -2.02471e-06 -2.50523e+07)
(-8.28075e+07 -87001.7 2.03153e-05 -336454 -1.06031e-05 -2.49432e+07)
(-8.24457e+07 -87008.7 4.43672e-05 -334887 2.49115e-06 -2.48342e+07)
(-8.20835e+07 -86967.7 1.55997e-05 -333527 5.78114e-06 -2.47251e+07)
(-8.17224e+07 -87079.1 7.22977e-06 -331941 -1.76339e-06 -2.46163e+07)
(-8.13583e+07 -87641.4 2.26461e-05 -330363 3.22092e-07 -2.45066e+07)
(-8.09948e+07 -86625.8 2.30924e-05 -329488 2.22445e-06 -2.43973e+07)
(-8.06373e+07 -86256.7 1.53568e-05 -327233 2.12827e-07 -2.42893e+07)
(-8.02763e+07 -87248.7 2.32285e-05 -326105 3.17808e-07 -2.41807e+07)
(-7.99127e+07 -87170.7 2.47986e-07 -324635 1.95213e-06 -2.40712e+07)
(-7.95509e+07 -87102.7 -1.11851e-20 -323036 -1.49184e-22 -2.39622e+07)
(-7.91883e+07 -87139.8 1.5623e-05 -321685 -1.77498e-06 -2.3853e+07)
(-7.88262e+07 -87024.8 3.97435e-05 -320121 -1.47968e-06 -2.37439e+07)
(-7.84643e+07 -87044.9 2.41818e-05 -318714 3.10635e-07 -2.36349e+07)
(-7.81024e+07 -86983.4 8.36566e-06 -317210 2.13428e-06 -2.35259e+07)
(-7.77408e+07 -86963.2 2.41246e-07 -315769 2.04681e-06 -2.3417e+07)
(-7.73793e+07 -86948.7 1.57752e-05 -314288 -5.98279e-06 -2.33081e+07)
(-7.70179e+07 -86979.7 4.15482e-05 -312841 5.0818e-07 -2.31992e+07)
(-7.66562e+07 -87083.5 1.72181e-05 -311357 4.38868e-06 -2.30903e+07)
(-7.6294e+07 -87227.8 2.4587e-05 -309907 -6.02345e-06 -2.29812e+07)
(-7.59312e+07 -87303.4 2.54802e-05 -308435 3.00606e-07 -2.28719e+07)
(-7.55682e+07 -87337.4 2.49587e-05 -306955 -6.11754e-06 -2.27625e+07)
(-7.52051e+07 -87322.5 8.63777e-05 -305473 3.14644e-06 -2.26532e+07)
(-7.48422e+07 -87280.7 1.85103e-05 -303982 1.10426e-05 -2.25439e+07)
(-7.44796e+07 -87236.2 2.62029e-05 -302502 2.94859e-07 -2.24346e+07)
(-7.41171e+07 -87192.1 1.75876e-05 -301023 1.95616e-07 -2.23254e+07)
(-7.37547e+07 -87158.9 2.56435e-05 -299551 -8.56258e-06 -2.22163e+07)
(-7.33925e+07 -87132.6 5.41549e-05 -298077 7.26623e-06 -2.21072e+07)
(-7.30303e+07 -87113.9 1.88476e-05 -296602 9.16487e-06 -2.19981e+07)
(-7.26681e+07 -87099 -4.51009e-07 -295125 -4.51523e-06 -2.1889e+07)
(-7.2306e+07 -87087.8 1.81739e-05 -293650 1.90836e-07 -2.17799e+07)
(-7.19439e+07 -87081.9 4.46514e-07 -292179 4.57313e-06 -2.16708e+07)
(-7.15817e+07 -87076.9 -1.61028e-20 -290716 -1.63495e-19 -2.15617e+07)
(-7.12196e+07 -87071.9 1.80767e-05 -289252 -4.44249e-06 -2.14527e+07)
(-7.08575e+07 -87065.1 -6.59657e-07 -287791 -6.98836e-06 -2.13436e+07)
(-7.04953e+07 -87055.6 2.78998e-05 -286325 -2.06452e-06 -2.12345e+07)
(-7.01331e+07 -87045.1 2.93757e-05 -284860 1.20661e-05 -2.11254e+07)
(-6.97709e+07 -87035 -4.33028e-07 -283395 -4.74337e-06 -2.10163e+07)
(-6.94086e+07 -87028.9 6.63557e-05 -281929 -4.13007e-06 -2.09072e+07)
(-6.90462e+07 -87026.4 1.98355e-05 -280458 7.38066e-06 -2.0798e+07)
(-6.86839e+07 -87029.6 4.26281e-07 -278980 4.82653e-06 -2.06889e+07)
(-6.83216e+07 -87033.3 -6.36049e-07 -277504 -7.28094e-06 -2.05797e+07)
(-6.79593e+07 -87038.3 4.83829e-05 -276026 -4.43283e-06 -2.04706e+07)
(-6.7597e+07 -87044.5 2.005e-05 -274557 5.08679e-06 -2.03615e+07)
(-6.72348e+07 -87052.5 -9.45191e-06 -273090 4.84665e-06 -2.02524e+07)
(-6.68726e+07 -87061.9 -1.96383e-05 -271627 2.30462e-06 -2.01433e+07)
(-6.65104e+07 -87070.4 -1.65117e-06 -270160 -1.99557e-05 -2.00342e+07)
(-6.61482e+07 -87080.7 0.000100089 -268688 -1.63483e-06 -1.99251e+07)
(-6.5786e+07 -87091.1 3.12675e-05 -267216 1.28652e-05 -1.9816e+07)
(-6.54238e+07 -87102.5 3.06074e-05 -265743 2.7931e-06 -1.97069e+07)
(-6.50617e+07 -87110.3 2.0576e-05 -264275 2.71887e-06 -1.95978e+07)
(-6.46995e+07 -87116.8 2.0478e-05 -262802 1.7076e-07 -1.94887e+07)
(-6.43374e+07 -87116.7 4.11627e-05 -261336 3.39609e-07 -1.93796e+07)
(-6.39752e+07 -87110.5 2.04856e-05 -259861 -2.41705e-06 -1.92705e+07)
(-6.3613e+07 -87089.9 9.80092e-06 -258396 -7.71207e-06 -1.91614e+07)
(-6.32508e+07 -87061.4 7.31076e-05 -256916 5.84279e-07 -1.90523e+07)
(-6.28889e+07 -86959.7 5.28625e-05 -255480 5.66295e-06 -1.89433e+07)
(-6.25271e+07 -86863.7 3.1828e-05 -253998 2.88409e-06 -1.88343e+07)
(-6.21666e+07 -86463.4 2.13821e-05 -252667 2.81311e-06 -1.87258e+07)
(-6.1807e+07 -86385.7 -6.46591e-19 -251224 -9.07709e-18 -1.86175e+07)
(-6.14479e+07 -85489.2 -5.72056e-07 -249882 -8.02137e-06 -1.85093e+07)
(-6.10951e+07 -86528.5 7.55784e-05 -248680 5.9365e-06 -1.84031e+07)
(-6.07268e+07 -89785.3 3.2375e-05 -243975 2.40438e-07 -1.82912e+07)
(-6.03599e+07 -86137 3.21455e-05 -243240 -5.18181e-06 -1.8181e+07)
(-6.00086e+07 -83616.5 2.23346e-05 -244091 8.32549e-06 -1.80758e+07)
(-5.96588e+07 -85266.8 3.70772e-20 -242459 7.77044e-19 -1.79704e+07)
(-5.92954e+07 -89816.8 -1.10404e-06 -240690 -1.64779e-05 -1.78608e+07)
(-5.89171e+07 -90083.4 0.000110311 -238547 7.77519e-07 -1.77467e+07)
(-5.85465e+07 -87515.4 9.08394e-07 -240430 1.38494e-05 -1.76361e+07)
(-5.81892e+07 -85326.4 -1.18469e-05 -236326 -1.12029e-05 -1.75276e+07)
(-5.78316e+07 -87749.6 6.66679e-05 -234801 -5.12845e-06 -1.74199e+07)
(-5.74621e+07 -88274.2 5.57301e-05 -233769 -5.23032e-06 -1.73088e+07)
(-5.70968e+07 -87910.3 0.000112632 -231912 7.53474e-07 -1.71986e+07)
(-5.67313e+07 -87809.3 7.969e-05 -230581 9.00685e-06 -1.70886e+07)
(-5.63669e+07 -87505.3 7.9304e-05 -228965 -2.31823e-06 -1.69788e+07)
(-5.60035e+07 -87394.8 9.1193e-05 -227518 5.91236e-07 -1.68693e+07)
(-5.56403e+07 -87287.5 5.72191e-05 -225999 3.67126e-07 -1.67599e+07)
(-5.52776e+07 -87243.1 9.19059e-05 -224531 5.83573e-07 -1.66506e+07)
(-5.49149e+07 -87213.1 8.12378e-05 -223046 9.15771e-06 -1.65414e+07)
(-5.45523e+07 -87206.1 5.82195e-05 -221581 6.14882e-06 -1.64322e+07)
(-5.41897e+07 -87212.8 5.77624e-05 -220107 -5.45309e-06 -1.63229e+07)
(-5.3827e+07 -87231.8 5.74798e-05 -218637 -1.42255e-05 -1.62137e+07)
(-5.34641e+07 -87260.7 0.000117059 -217154 7.05534e-07 -1.61044e+07)
(-5.3101e+07 -87296.5 8.30643e-05 -215674 1.51782e-05 -1.5995e+07)
(-5.27378e+07 -87351 5.92823e-05 -214179 6.24425e-06 -1.58856e+07)
(-5.23745e+07 -87388.9 5.88403e-05 -212708 -5.57174e-06 -1.57761e+07)
(-5.2011e+07 -87426.7 5.85673e-05 -211212 -1.45024e-05 -1.56667e+07)
(-5.16475e+07 -87354.8 0.00013108 -209773 7.49717e-07 -1.55572e+07)
(-5.12848e+07 -87165.7 9.59788e-05 -208304 6.52098e-06 -1.54479e+07)
(-5.09224e+07 -86882.4 7.18329e-05 -206875 -2.59681e-06 -1.53388e+07)
(-5.05625e+07 -86253.6 9.63129e-05 -205586 5.3379e-07 -1.52304e+07)
(-5.02038e+07 -86777.4 9.66359e-05 -203727 5.30013e-07 -1.51223e+07)
(-4.98401e+07 -87774.1 9.71114e-05 -202591 3.55645e-06 -1.50128e+07)
(-4.94745e+07 -87597.6 9.72749e-05 -201131 5.22305e-07 -1.49027e+07)
(-4.91115e+07 -87214.2 7.30407e-05 -199510 -2.66124e-06 -1.47933e+07)
(-4.87492e+07 -87203.9 7.35795e-05 -198037 3.44589e-06 -1.46842e+07)
(-4.83867e+07 -87249.4 6.10844e-05 -196502 -5.81998e-06 -1.4575e+07)
(-4.80241e+07 -87278.4 0.000135471 -195070 6.9712e-07 -1.44657e+07)
(-4.76615e+07 -87234.5 8.72165e-05 -193552 1.58845e-05 -1.43565e+07)
(-4.72991e+07 -87198.2 3.70289e-05 -192106 -2.9111e-06 -1.42474e+07)
(-4.69368e+07 -87133.3 0.000111575 -190619 -5.65812e-06 -1.41382e+07)
(-4.65746e+07 -87107.3 6.27689e-05 -189165 9.65876e-06 -1.40291e+07)
(-4.62125e+07 -87090.2 6.2521e-05 -187684 3.0492e-07 -1.39201e+07)
(-4.58505e+07 -87104.9 8.77875e-05 -186206 4.23545e-07 -1.3811e+07)
(-4.54885e+07 -87122.9 6.31705e-05 -184734 6.58974e-06 -1.3702e+07)
(-4.51266e+07 -87149 6.27895e-05 -183274 -6.00998e-06 -1.3593e+07)
(-4.47646e+07 -87173.4 6.2555e-05 -181823 -1.5519e-05 -1.34839e+07)
(-4.44025e+07 -87191.3 0.000126856 -180364 5.85953e-07 -1.33749e+07)
(-4.40403e+07 -87197.6 8.97305e-05 -178899 1.63101e-05 -1.32658e+07)
(-4.36781e+07 -87189.5 6.40518e-05 -177426 6.66705e-06 -1.31567e+07)
(-4.3316e+07 -87178.1 6.36861e-05 -175949 -6.11046e-06 -1.30476e+07)
(-4.29539e+07 -87165.8 6.34611e-05 -174481 -1.57504e-05 -1.29385e+07)
(-4.2592e+07 -87159.5 0.000141458 -173015 6.18268e-07 -1.28295e+07)
(-4.22302e+07 -87159.2 0.000103412 -171556 6.89348e-06 -1.27205e+07)
(-4.18683e+07 -87165.3 0.000116217 -170094 -2.73498e-06 -1.26115e+07)
(-4.15065e+07 -87180.4 7.78936e-05 -168631 3.56923e-06 -1.25025e+07)
(-4.11444e+07 -87199.1 9.09573e-05 -167166 3.8007e-07 -1.23935e+07)
(-4.07822e+07 -87223.8 0.000104214 -165698 4.30542e-07 -1.22844e+07)
(-4.04197e+07 -87227.2 9.14145e-05 -164229 3.73376e-07 -1.21752e+07)
(-4.00573e+07 -87197.3 7.84243e-05 -162747 -2.95608e-06 -1.2066e+07)
(-3.96949e+07 -87142.4 7.88634e-05 -161267 3.59553e-06 -1.19569e+07)
(-3.93331e+07 -87014 6.55309e-05 -159817 -6.31875e-06 -1.18479e+07)
(-3.89716e+07 -86966.6 0.00014505 -158314 5.65713e-07 -1.1739e+07)
(-3.86102e+07 -87008 9.28814e-05 -156885 1.02709e-05 -1.16301e+07)
(-3.82482e+07 -87211 0.000105986 -155354 4.03791e-07 -1.15211e+07)
(-3.78854e+07 -87409.1 9.29509e-05 -153927 3.49965e-07 -1.14118e+07)
(-3.7522e+07 -87728.7 4.01595e-05 -152325 6.80377e-06 -1.13023e+07)
(-3.71568e+07 -87866.9 6.65786e-05 -150866 -3.08992e-06 -1.11923e+07)
(-3.6793e+07 -87092.7 0.000119744 -149641 -1.62754e-05 -1.10828e+07)
(-3.64334e+07 -86676.4 0.000173943 -147881 -6.07458e-06 -1.09744e+07)
(-3.60729e+07 -87139.1 0.000107973 -146536 1.71661e-05 -1.08658e+07)
(-3.57105e+07 -87349.6 4.0588e-05 -145082 6.86988e-06 -1.07567e+07)
(-3.53481e+07 -87502 0.000107652 -143582 -6.36956e-06 -1.06475e+07)
(-3.4985e+07 -87571.7 9.49102e-05 -142124 1.04584e-05 -1.05381e+07)
(-3.46221e+07 -87558.8 6.76998e-05 -140622 2.28444e-07 -1.04288e+07)
(-3.42592e+07 -87543.6 9.49728e-05 -139151 3.1647e-07 -1.03195e+07)
(-3.38965e+07 -87504.5 4.06793e-05 -137662 -3.2649e-06 -1.02103e+07)
(-3.3534e+07 -87484.7 0.000122284 -136179 -9.81927e-06 -1.0101e+07)
(-3.31714e+07 -87462.2 0.000122631 -134713 -6.43108e-06 -9.99183e+06)
(-3.28089e+07 -87443 0.000177775 -133246 5.6285e-07 -9.88264e+06)
(-3.24463e+07 -87422.7 0.000123511 -131778 7.23669e-06 -9.77344e+06)
(-3.20839e+07 -87405.9 0.000109815 -130290 3.38715e-07 -9.66425e+06)
(-3.17215e+07 -87383.8 0.000110118 -128809 3.7734e-06 -9.55509e+06)
(-3.13592e+07 -87360 9.64442e-05 -127332 2.89681e-07 -9.44596e+06)
(-3.09969e+07 -87345.3 8.27201e-05 -125881 -3.20564e-06 -9.33682e+06)
(-3.06345e+07 -87327.1 0.000110714 -124440 3.78065e-06 -9.22768e+06)
(-3.02721e+07 -87315.4 6.9071e-05 -122973 -6.72693e-06 -9.11852e+06)
(-2.99097e+07 -87301.6 0.000180386 -121499 5.1311e-07 -9.00936e+06)
(-2.95474e+07 -87288.3 9.74812e-05 -120016 7.22356e-06 -8.90022e+06)
(-2.9185e+07 -87275.4 0.00012549 -118564 7.309e-06 -8.79107e+06)
(-2.88225e+07 -87271.4 6.98216e-05 -117123 3.67717e-06 -8.6819e+06)
(-2.84599e+07 -87271 4.19081e-05 -115687 1.1267e-07 -8.57268e+06)
(-2.80972e+07 -87268 6.99601e-05 -114209 1.8539e-07 -8.46342e+06)
(-2.77345e+07 -87272.9 0.000111685 -112705 -1.72271e-05 -8.35417e+06)
(-2.73719e+07 -87280.6 0.000182219 -111213 -1.00589e-05 -8.24493e+06)
(-2.70093e+07 -87306 0.000141001 -109737 1.79311e-05 -8.13571e+06)
(-2.66467e+07 -87339.6 4.24045e-05 -108280 7.14612e-06 -8.0265e+06)
(-2.62841e+07 -87376.6 0.000112644 -106806 -6.77375e-06 -7.91729e+06)
(-2.59216e+07 -87400.1 9.90939e-05 -105329 1.0832e-05 -7.80808e+06)
(-2.55591e+07 -87408.8 7.07121e-05 -103836 1.68643e-07 -7.69887e+06)
(-2.51965e+07 -87409.9 9.91392e-05 -102365 2.32751e-07 -7.58966e+06)
(-2.48338e+07 -87404.2 4.24713e-05 -100896 -3.44777e-06 -7.48041e+06)
(-2.44711e+07 -87379.1 0.000127595 -99425.3 -1.03624e-05 -7.37114e+06)
(-2.41083e+07 -87345.9 0.000127848 -97922.1 -6.82544e-06 -7.26187e+06)
(-2.37456e+07 -87310.3 0.000156874 -96425.9 1.10267e-05 -7.15261e+06)
(-2.33831e+07 -87277.1 8.57778e-05 -94939.7 1.08813e-05 -7.04342e+06)
(-2.30208e+07 -87265.3 9.98073e-05 -93465 -6.92742e-06 -6.93427e+06)
(-2.26585e+07 -87280.8 0.000100078 -91986.2 2.09309e-07 -6.82514e+06)
(-2.22959e+07 -87391.8 0.000100135 -90489 -3.37315e-06 -6.71591e+06)
(-2.19327e+07 -87458.9 8.59276e-05 -89064.6 -3.40988e-06 -6.60653e+06)
(-2.15695e+07 -87428.9 0.000115001 -87578.8 1.09914e-05 -6.49711e+06)
(-2.12063e+07 -87389.9 4.29699e-05 -86103.4 -7.10041e-06 -6.38772e+06)
(-2.08434e+07 -87330.4 0.000158095 -84606.8 -6.89021e-06 -6.2784e+06)
(-2.04807e+07 -87300.3 0.000100994 -83113.9 1.09908e-05 -6.16914e+06)
(-2.01182e+07 -87282.8 0.000144293 -81655.3 7.47467e-06 -6.05995e+06)
(-1.97557e+07 -87286.9 7.22864e-05 -80192.2 7.34751e-06 -5.95077e+06)
(-1.93932e+07 -87294.1 1.43281e-05 -78758.7 -7.1994e-06 -5.8416e+06)
(-1.90308e+07 -87297.7 0.00010107 -77273.8 -1.06732e-05 -5.73242e+06)
(-1.86684e+07 -87303.8 0.000115658 -75787.2 -1.06633e-05 -5.62325e+06)
(-1.8306e+07 -87305.4 0.000159431 -74307.5 2.65733e-07 -5.5141e+06)
(-1.79437e+07 -87297.9 0.000116233 -72863.6 1.10718e-05 -5.40497e+06)
(-1.75813e+07 -87283.6 0.000101712 -71430.9 3.79341e-06 -5.29582e+06)
(-1.72188e+07 -87294.4 0.000116291 -69970 1.81781e-07 -5.18663e+06)
(-1.68563e+07 -87297.2 0.000101955 -68489.4 7.43151e-06 -5.07743e+06)
(-1.64938e+07 -87289.6 7.2817e-05 -66979.1 1.08829e-07 -4.96823e+06)
(-1.61313e+07 -87273.4 0.000102035 -65528.3 1.49012e-07 -4.85903e+06)
(-1.57687e+07 -87273.5 1.45892e-05 -64069.5 2.0809e-08 -4.74984e+06)
(-1.54061e+07 -87288.3 0.000102069 -62609.9 -1.08101e-05 -4.64062e+06)
(-1.50434e+07 -87297.9 0.000131385 -61130.9 -1.07829e-05 -4.53137e+06)
(-1.46807e+07 -87302.2 0.000160929 -59640.7 3.86995e-06 -4.4221e+06)
(-1.4318e+07 -87286.4 0.000117188 -58175.7 7.47064e-06 -4.31284e+06)
(-1.39553e+07 -87279.4 0.000117147 -56708.7 -3.51525e-06 -4.20361e+06)
(-1.35927e+07 -87260.3 0.00011732 -55244.3 3.80883e-06 -4.09439e+06)
(-1.32303e+07 -87257.9 7.34757e-05 -53747.5 1.10913e-05 -3.98521e+06)
(-1.28679e+07 -87267.8 7.33648e-05 -52281 -3.58572e-06 -3.87605e+06)
(-1.25055e+07 -87273.7 0.000117529 -50807 1.32022e-07 -3.7669e+06)
(-1.21431e+07 -87292.8 4.40276e-05 -49351.3 -7.3032e-06 -3.65773e+06)
(-1.17806e+07 -87305.3 0.000161743 -47887.3 -7.18505e-06 -3.54855e+06)
(-1.14181e+07 -87324.6 0.000103216 -46402.1 1.85072e-05 -3.43934e+06)
(-1.10555e+07 -87332.1 0.000117831 -44912.3 1.16714e-07 -3.33012e+06)
(-1.06928e+07 -87331.5 0.000117834 -43432.7 -7.25667e-06 -3.22088e+06)
(-1.03303e+07 -87321.6 7.37299e-05 -41988.7 6.81611e-08 -3.11168e+06)
(-9.96765e+06 -87323.2 0.000103248 -40503.4 -3.59684e-06 -3.00245e+06)
(-9.60496e+06 -87296.5 0.000118006 -39052.3 -1.09712e-05 -2.8932e+06)
(-9.24245e+06 -87260.3 0.000162464 -37572.7 1.34163e-07 -2.78401e+06)
(-8.87994e+06 -87249.3 0.000118297 -36091.4 1.11775e-05 -2.67481e+06)
(-8.51748e+06 -87268.3 0.000103512 -34628.6 3.775e-06 -2.56563e+06)
(-8.15493e+06 -87350.5 0.000118323 -33169.4 8.60914e-08 -2.45643e+06)
(-7.79189e+06 -87393.1 0.000103626 -31673.6 7.47115e-06 -2.34707e+06)
(-7.4289e+06 -87374.5 7.40144e-05 -30148.8 4.90179e-08 -2.23771e+06)
(-7.06628e+06 -87332.1 0.000103661 -28731.2 6.52743e-08 -2.1285e+06)
(-6.70374e+06 -87304.4 4.44426e-05 -27251.4 2.65394e-08 -2.0193e+06)
(-6.34135e+06 -87285.3 0.000103677 -25788.9 -1.10571e-05 -1.91014e+06)
(-5.97913e+06 -87268.9 0.000133363 -24278.4 -1.10484e-05 -1.80102e+06)
(-5.61713e+06 -87226.8 0.000163136 -22788.4 3.78917e-06 -1.69198e+06)
(-5.25547e+06 -87118.4 0.000118699 -21301.7 7.47293e-06 -1.58303e+06)
(-4.89451e+06 -86932.2 0.000118684 -19884.1 -3.65806e-06 -1.47432e+06)
(-4.53469e+06 -86619.6 0.000118743 -18404.2 3.75855e-06 -1.36593e+06)
(-4.17657e+06 -86132.1 7.4262e-05 -16955.2 1.11622e-05 -1.25806e+06)
(-3.82105e+06 -85304.1 8.90751e-05 -15633.9 -3.68209e-06 -1.15101e+06)
(-3.46978e+06 -83984.2 0.000118806 -14324.7 3.66253e-08 -1.04523e+06)
(-3.12483e+06 -81868 4.45408e-05 -13216.1 -7.41507e-06 -941413)
(-2.79077e+06 -78670.5 0.000163397 -12428.6 -7.38815e-06 -840960)
(-2.46973e+06 -74163.5 0.000104045 -12024.8 1.8597e-05 -744527)
(-2.17203e+06 -67846.3 0.000118882 -12560.3 2.28367e-08 -655377)
(-1.89486e+06 -59305.9 0.000118887 -14123.3 -7.41188e-06 -572696)
(-1.66449e+06 -50226.1 7.43244e-05 -19187.6 1.07892e-08 -505104)
(-1.42914e+06 -42404.9 0.000104073 -24423.2 -3.70446e-06 -436070)
(-1.26306e+06 -88251.3 0.000118977 -26690.7 -1.11435e-05 -386926)
(-623204 -333658 7.44414e-05 222342 5.2134e-05 -120259)
(-1.11838e+08 -1.57675e+07 6.60253e-07 -1.31621e+07 4.40557e-07 -3.75e+07)
(-1.07895e+08 -4.70678e+06 -1.04829e-06 -2.99892e+06 1.19422e-07 -3.32682e+07)
(-1.06068e+08 -926959 -3.61164e-07 -824193 6.17578e-08 -3.20676e+07)
(-1.04778e+08 46519.8 6.51467e-07 12585.3 3.75096e-07 -3.14298e+07)
(-1.04827e+08 359365 4.32774e-06 188679 2.79078e-06 -3.13916e+07)
(-1.04748e+08 296382 1.45868e-06 274208 6.00836e-07 -3.1342e+07)
(-1.04865e+08 185799 -6.448e-21 278708 -5.69315e-21 -3.13758e+07)
(-1.04835e+08 63476.8 -1.39225e-06 278800 -5.62141e-07 -3.13669e+07)
(-1.04771e+08 -35134.3 1.78247e-21 268175 3.08315e-21 -3.13507e+07)
(-1.04614e+08 -110363 1.74372e-06 260446 5.60735e-07 -3.13061e+07)
(-1.04412e+08 -163896 -1.00426e-20 252468 -1.48925e-20 -3.12478e+07)
(-1.04161e+08 -200737 -9.44826e-06 246978 -2.51168e-06 -3.11741e+07)
(-1.03885e+08 -225128 1.68222e-20 242286 3.03534e-20 -3.10928e+07)
(-1.03583e+08 -241745 2.13331e-06 239844 -6.10734e-08 -3.10029e+07)
(-1.03278e+08 -250836 6.58283e-06 238402 1.38335e-06 -3.09118e+07)
(-1.02951e+08 -270827 3.77094e-06 240184 2.66624e-06 -3.08131e+07)
(-1.02637e+08 -256897 8.3208e-06 251716 1.52447e-07 -3.07157e+07)
(-1.02351e+08 -345272 6.95304e-06 218588 2.68147e-06 -3.06397e+07)
(-1.01781e+08 -223559 -3.16622e-07 166316 -8.36782e-07 -3.04845e+07)
(-1.01432e+08 -169609 5.77216e-06 225525 -2.43665e-06 -3.03619e+07)
(-1.01266e+08 -252147 9.53319e-06 244760 2.28079e-06 -3.03064e+07)
(-1.00898e+08 -249910 0 233125 0 -3.01994e+07)
(-1.0059e+08 -263938 -4.34593e-06 230152 -1.54949e-06 -3.01078e+07)
(-1.00243e+08 -267304 6.93166e-06 228048 2.91291e-06 -3.00045e+07)
(-9.99106e+07 -268777 4.68789e-06 226256 1.63188e-06 -2.99053e+07)
(-9.95702e+07 -269471 3.61875e-06 225408 -2.88493e-06 -2.98034e+07)
(-9.92331e+07 -269557 2.35944e-06 224414 2.65805e-07 -2.97026e+07)
(-9.88944e+07 -269588 -7.02571e-06 223660 4.29939e-07 -2.96012e+07)
(-9.85565e+07 -269514 7.58767e-06 222842 7.91978e-07 -2.95001e+07)
(-9.82183e+07 -269435 -5.53298e-06 222081 -1.83541e-06 -2.93989e+07)
(-9.78804e+07 -269333 -5.39569e-06 221296 -5.24363e-07 -2.92977e+07)
(-9.75425e+07 -269224 9.25571e-06 220530 4.96358e-06 -2.91966e+07)
(-9.72048e+07 -269091 -6.03307e-06 219747 -1.95579e-06 -2.90955e+07)
(-9.68673e+07 -268942 5.29437e-06 218986 -2.43444e-06 -2.89945e+07)
(-9.653e+07 -268744 2.43088e-06 218194 -2.77782e-06 -2.88935e+07)
(-9.61927e+07 -268572 3.93008e-19 217474 1.79808e-18 -2.87926e+07)
(-9.5856e+07 -268334 1.80717e-05 216663 1.24891e-05 -2.86918e+07)
(-9.55189e+07 -268420 -1.66918e-05 216145 -2.92112e-06 -2.85908e+07)
(-9.51826e+07 -268414 9.48995e-06 215276 -2.60067e-06 -2.84902e+07)
(-9.4845e+07 -269755 2.95124e-07 215360 1.72356e-06 -2.83889e+07)
(-9.45071e+07 -270666 -7.04721e-06 214002 -5.06296e-07 -2.82879e+07)
(-9.41677e+07 -273724 -1.08137e-05 214540 -7.56741e-07 -2.81859e+07)
(-9.38234e+07 -275142 -2.63803e-05 211141 -5.44925e-06 -2.80837e+07)
(-9.34824e+07 -267712 -6.36756e-06 206348 7.03984e-06 -2.79828e+07)
(-9.31489e+07 -263419 -7.98105e-06 211824 -2.42417e-06 -2.78811e+07)
(-9.28148e+07 -268169 -1.32202e-05 211087 -1.05713e-05 -2.77811e+07)
(-9.2475e+07 -269929 2.87749e-07 209588 2.00486e-06 -2.76796e+07)
(-9.21362e+07 -270767 -1.95608e-05 208813 4.8995e-06 -2.75782e+07)
(-9.17964e+07 -271144 9.46884e-06 207489 8.8277e-06 -2.74767e+07)
(-9.14569e+07 -270781 -5.69161e-07 206809 -4.24662e-06 -2.7375e+07)
(-9.11178e+07 -270571 -1.35276e-05 205925 -5.05719e-06 -2.72736e+07)
(-9.07789e+07 -270242 -8.79652e-06 205239 -4.86319e-07 -2.71721e+07)
(-9.04405e+07 -270050 -2.32245e-05 204467 -7.93252e-06 -2.70708e+07)
(-9.01021e+07 -269888 1.12146e-06 203734 9.11665e-06 -2.69695e+07)
(-8.97639e+07 -269797 -8.98214e-06 202964 1.83688e-06 -2.68683e+07)
(-8.94258e+07 -269734 -1.46794e-05 202204 -5.43103e-06 -2.67671e+07)
(-8.90878e+07 -269698 -2.24511e-20 201440 -1.71124e-19 -2.66659e+07)
(-8.87498e+07 -269670 -1.45817e-05 200676 -7.13174e-07 -2.65647e+07)
(-8.84118e+07 -269654 -1.8646e-05 199912 8.93553e-06 -2.64636e+07)
(-8.80738e+07 -269643 -1.00247e-05 199147 -4.71828e-07 -2.63624e+07)
(-8.77358e+07 -269637 1.52635e-05 198385 7.05026e-07 -2.62612e+07)
(-8.73979e+07 -269628 -9.78207e-06 197623 4.69957e-06 -2.61601e+07)
(-8.70599e+07 -269615 4.69607e-06 196866 -5.00945e-06 -2.60589e+07)
(-8.67219e+07 -269600 2.12498e-05 196114 9.29172e-07 -2.59577e+07)
(-8.6384e+07 -269589 -2.1547e-05 195355 -9.25551e-07 -2.58566e+07)
(-8.6046e+07 -269589 -1.07098e-06 194602 -1.09311e-05 -2.57554e+07)
(-8.57081e+07 -269611 -8.00077e-07 193828 -8.30889e-06 -2.56543e+07)
(-8.53698e+07 -269650 -2.80395e-05 193111 -1.14336e-06 -2.5553e+07)
(-8.50322e+07 -269788 1.2685e-05 192341 1.46701e-05 -2.5452e+07)
(-8.4693e+07 -269999 -1.09807e-05 191788 5.30496e-06 -2.53504e+07)
(-8.43564e+07 -270729 4.77648e-06 191091 -1.14365e-05 -2.52496e+07)
(-8.4013e+07 -272148 -2.35947e-05 191198 -9.00177e-07 -2.51465e+07)
(-8.36811e+07 -275096 5.20777e-07 191490 5.97549e-06 -2.50469e+07)
(-8.33171e+07 -286884 1.26028e-05 192577 6.49363e-06 -2.49374e+07)
(-8.30031e+07 -284866 -1.88566e-05 200567 -6.78562e-06 -2.48408e+07)
(-8.25219e+07 -352946 -4.37922e-05 183222 -7.73609e-06 -2.47016e+07)
(-8.21929e+07 -306379 1.30211e-05 132615 6.69997e-06 -2.46181e+07)
(-8.20472e+07 -204040 -1.89834e-05 174289 -6.59103e-07 -2.45619e+07)
(-8.16715e+07 -272711 -1.17759e-05 198571 1.23645e-05 -2.44419e+07)
(-8.13243e+07 -256809 5.06117e-07 189273 6.47086e-06 -2.43405e+07)
(-8.09907e+07 -274437 -1.40799e-05 188936 -1.35155e-05 -2.42405e+07)
(-8.06395e+07 -277053 -2.03178e-05 181824 -7.25823e-06 -2.41373e+07)
(-8.02979e+07 -273062 -2.66976e-05 180314 -8.6031e-07 -2.40353e+07)
(-7.99577e+07 -270879 -6.24558e-06 180275 6.53382e-06 -2.39332e+07)
(-7.96196e+07 -269575 -1.31278e-05 179418 6.38991e-06 -2.3832e+07)
(-7.92818e+07 -268829 -1.42531e-05 179265 -7.30934e-06 -2.37308e+07)
(-7.89447e+07 -268890 -7.43903e-06 178456 -7.16398e-06 -2.36299e+07)
(-7.86072e+07 -269097 -2.80614e-05 177941 -8.42232e-07 -2.35288e+07)
(-7.82694e+07 -269592 -6.59559e-06 177083 6.87782e-06 -2.34277e+07)
(-7.79313e+07 -269695 -1.38145e-05 176212 6.73702e-06 -2.33265e+07)
(-7.7593e+07 -269785 1.39501e-05 175475 -6.80559e-06 -2.32253e+07)
(-7.72549e+07 -269449 -7.76372e-06 174499 -7.49466e-06 -2.31241e+07)
(-7.69172e+07 -269466 -2.93965e-05 174086 -8.24123e-07 -2.30229e+07)
(-7.65793e+07 -269282 4.76574e-07 173055 7.41979e-06 -2.29219e+07)
(-7.62425e+07 -269566 -2.24418e-05 172847 -6.12676e-07 -2.28209e+07)
(-7.59033e+07 -271092 -2.31101e-05 172028 -8.16067e-06 -2.27194e+07)
(-7.55653e+07 -268199 -7.61092e-06 169077 -2.02398e-07 -2.26189e+07)
(-7.52307e+07 -267232 -6.38061e-20 171395 -1.09138e-18 -2.25178e+07)
(-7.4894e+07 -270001 -7.27397e-06 169716 7.54424e-06 -2.24173e+07)
(-7.4555e+07 -269807 -1.51444e-05 168307 7.40958e-06 -2.2316e+07)
(-7.42174e+07 -269623 -4.61876e-07 168037 -7.87283e-06 -2.22148e+07)
(-7.38793e+07 -269753 -9.19541e-07 166825 -1.58728e-05 -2.21137e+07)
(-7.35413e+07 -269428 -7.99486e-06 166375 -1.96988e-07 -2.20125e+07)