/*--------------------------------*- C++ -*----------------------------------*\
| =========                 |                                                 |
| \\      /  F ield         | foam-extend: Open Source CFD                    |
|  \\    /   O peration     | Version:     4.0                                |
|   \\  /    A nd           | Web:         http://www.foam-extend.org         |
|    \\/     M anipulation  |                                                 |
\*---------------------------------------------------------------------------*/
FoamFile
{
    version     2.0;
    format      ascii;
    class       volScalarField;
    location    "1";
    object      sigmaEq;
}
// * * * * * * * * * * * * * * * * * * * * * * * * * * * * * * * * * * * * * //

dimensions      [1 -1 -2 0 0 0 0];

internalField   nonuniform List<scalar> 
10240
(
1.09638e+08
9.85054e+07
9.83441e+07
9.75851e+07
9.84094e+07
9.87637e+07
9.91601e+07
9.92993e+07
9.93353e+07
9.92429e+07
9.90813e+07
9.88598e+07
9.86064e+07
9.83236e+07
9.80339e+07
9.77203e+07
9.73945e+07
9.70957e+07
9.66857e+07
9.63479e+07
9.60907e+07
9.57714e+07
9.54787e+07
9.51524e+07
9.48374e+07
9.45144e+07
9.41944e+07
9.38728e+07
9.3552e+07
9.32309e+07
9.29102e+07
9.25895e+07
9.2269e+07
9.19486e+07
9.16285e+07
9.13085e+07
9.0989e+07
9.06694e+07
9.03501e+07
9.00299e+07
8.97078e+07
8.93848e+07
8.9055e+07
8.87293e+07
8.8418e+07
8.81024e+07
8.77808e+07
8.74593e+07
8.71362e+07
8.68137e+07
8.64915e+07
8.61696e+07
8.58482e+07
8.55269e+07
8.52059e+07
8.48849e+07
8.45641e+07
8.42432e+07
8.39224e+07
8.36016e+07
8.32808e+07
8.296e+07
8.26392e+07
8.23184e+07
8.19976e+07
8.16768e+07
8.13561e+07
8.10351e+07
8.07146e+07
8.03926e+07
8.00729e+07
7.97464e+07
7.9429e+07
7.90835e+07
7.87599e+07
7.83851e+07
7.80772e+07
7.78325e+07
7.74982e+07
7.71947e+07
7.68823e+07
7.6546e+07
7.62202e+07
7.58964e+07
7.55752e+07
7.52552e+07
7.49355e+07
7.46156e+07
7.42952e+07
7.39743e+07
7.36533e+07
7.33324e+07
7.30121e+07
7.26912e+07
7.23716e+07
7.20492e+07
7.17269e+07
7.14108e+07
7.10909e+07
7.07689e+07
7.04486e+07
7.01274e+07
6.98068e+07
6.94863e+07
6.91658e+07
6.88456e+07
6.85255e+07
6.82054e+07
6.78851e+07
6.75643e+07
6.7243e+07
6.69216e+07
6.66e+07
6.62787e+07
6.59575e+07
6.56365e+07
6.53156e+07
6.49948e+07
6.46741e+07
6.43534e+07
6.40327e+07
6.3712e+07
6.33913e+07
6.30706e+07
6.27499e+07
6.24291e+07
6.21084e+07
6.17876e+07
6.14668e+07
6.11459e+07
6.0825e+07
6.05041e+07
6.01833e+07
5.98625e+07
5.95418e+07
5.9221e+07
5.89002e+07
5.85795e+07
5.82587e+07
5.7938e+07
5.76173e+07
5.72966e+07
5.69758e+07
5.66551e+07
5.63344e+07
5.60136e+07
5.56931e+07
5.53727e+07
5.50533e+07
5.47348e+07
5.44167e+07
5.41042e+07
5.37805e+07
5.34551e+07
5.31421e+07
5.28325e+07
5.2511e+07
5.21765e+07
5.18455e+07
5.15312e+07
5.12146e+07
5.0887e+07
5.05638e+07
5.024e+07
4.99174e+07
4.95956e+07
4.9274e+07
4.89528e+07
4.86316e+07
4.83105e+07
4.79893e+07
4.76681e+07
4.73468e+07
4.70253e+07
4.67036e+07
4.63818e+07
4.606e+07
4.5738e+07
4.54169e+07
4.50959e+07
4.4777e+07
4.44597e+07
4.41373e+07
4.38136e+07
4.34923e+07
4.31714e+07
4.28504e+07
4.25293e+07
4.22082e+07
4.18872e+07
4.15664e+07
4.12457e+07
4.0925e+07
4.06044e+07
4.02839e+07
3.99633e+07
3.96427e+07
3.93221e+07
3.90013e+07
3.86806e+07
3.83599e+07
3.80393e+07
3.77188e+07
3.73983e+07
3.70779e+07
3.67574e+07
3.64368e+07
3.6116e+07
3.5795e+07
3.54741e+07
3.51532e+07
3.48327e+07
3.45126e+07
3.41925e+07
3.3872e+07
3.35507e+07
3.3229e+07
3.29055e+07
3.25832e+07
3.22649e+07
3.19456e+07
3.16247e+07
3.13038e+07
3.09822e+07
3.06609e+07
3.03395e+07
3.00184e+07
2.96973e+07
2.93762e+07
2.90552e+07
2.87341e+07
2.84131e+07
2.80922e+07
2.77714e+07
2.74505e+07
2.71296e+07
2.68087e+07
2.64878e+07
2.61669e+07
2.5846e+07
2.5525e+07
2.52038e+07
2.48826e+07
2.45614e+07
2.42403e+07
2.39193e+07
2.35982e+07
2.32771e+07
2.2956e+07
2.2635e+07
2.23139e+07
2.19927e+07
2.16715e+07
2.13503e+07
2.10291e+07
2.07081e+07
2.03872e+07
2.00664e+07
1.97453e+07
1.94237e+07
1.9102e+07
1.87804e+07
1.84591e+07
1.81379e+07
1.78169e+07
1.74959e+07
1.71749e+07
1.68539e+07
1.6533e+07
1.62121e+07
1.58912e+07
1.55703e+07
1.52493e+07
1.49283e+07
1.46073e+07
1.42862e+07
1.39652e+07
1.36441e+07
1.3323e+07
1.30017e+07
1.26805e+07
1.23594e+07
1.20383e+07
1.17174e+07
1.13965e+07
1.10756e+07
1.07547e+07
1.04337e+07
1.01127e+07
9.79164e+06
9.47053e+06
9.14946e+06
8.8284e+06
8.50724e+06
8.18627e+06
7.8653e+06
7.54437e+06
7.22336e+06
6.90195e+06
6.58062e+06
6.25953e+06
5.93858e+06
5.61776e+06
5.29714e+06
4.97671e+06
4.6566e+06
4.33707e+06
4.01862e+06
3.70168e+06
3.38697e+06
3.07602e+06
2.77049e+06
2.47432e+06
2.18932e+06
1.92411e+06
1.67607e+06
1.46671e+06
1.25293e+06
1.11192e+06
936281
9.31318e+07
9.38658e+07
9.3631e+07
9.31392e+07
9.33253e+07
9.33222e+07
9.34292e+07
9.34024e+07
9.33364e+07
9.31915e+07
9.30053e+07
9.2778e+07
9.25293e+07
9.22589e+07
9.19869e+07
9.16976e+07
9.14284e+07
9.11481e+07
9.0599e+07
9.03352e+07
9.02038e+07
8.98671e+07
8.9591e+07
8.92814e+07
8.89845e+07
8.86813e+07
8.83809e+07
8.80792e+07
8.77782e+07
8.7477e+07
8.7176e+07
8.68751e+07
8.65744e+07
8.62737e+07
8.59733e+07
8.5673e+07
8.5373e+07
8.5073e+07
8.47734e+07
8.44734e+07
8.4172e+07
8.38708e+07
8.35622e+07
8.32551e+07
8.29631e+07
8.26656e+07
8.23624e+07
8.20606e+07
8.17575e+07
8.14552e+07
8.11532e+07
8.08514e+07
8.055e+07
8.02486e+07
7.99475e+07
7.96463e+07
7.93453e+07
7.90442e+07
7.87432e+07
7.84422e+07
7.81412e+07
7.78402e+07
7.75392e+07
7.72382e+07
7.69373e+07
7.66362e+07
7.63353e+07
7.60341e+07
7.57334e+07
7.54315e+07
7.51318e+07
7.48266e+07
7.45319e+07
7.42094e+07
7.39367e+07
7.3496e+07
7.31625e+07
7.30652e+07
7.27514e+07
7.24352e+07
7.21386e+07
7.18208e+07
7.15159e+07
7.12135e+07
7.09123e+07
7.0612e+07
7.03118e+07
7.00114e+07
6.97105e+07
6.94092e+07
6.91079e+07
6.88067e+07
6.85062e+07
6.8205e+07
6.79055e+07
6.76034e+07
6.73006e+07
6.7005e+07
6.67045e+07
6.6402e+07
6.61017e+07
6.58003e+07
6.54995e+07
6.51987e+07
6.48979e+07
6.45974e+07
6.42969e+07
6.39965e+07
6.36959e+07
6.33948e+07
6.30934e+07
6.27919e+07
6.24903e+07
6.21889e+07
6.18876e+07
6.15864e+07
6.12854e+07
6.09844e+07
6.06835e+07
6.03826e+07
6.00817e+07
5.97808e+07
5.94799e+07
5.9179e+07
5.88781e+07
5.85771e+07
5.82762e+07
5.79752e+07
5.76742e+07
5.73731e+07
5.70721e+07
5.67711e+07
5.64701e+07
5.61691e+07
5.58681e+07
5.55672e+07
5.52662e+07
5.49653e+07
5.46643e+07
5.43634e+07
5.40625e+07
5.37616e+07
5.34606e+07
5.31596e+07
5.28587e+07
5.25577e+07
5.22569e+07
5.1956e+07
5.16558e+07
5.1356e+07
5.10567e+07
5.07645e+07
5.04608e+07
5.01595e+07
4.98706e+07
4.95741e+07
4.92711e+07
4.89598e+07
4.86524e+07
4.83539e+07
4.80532e+07
4.77457e+07
4.74429e+07
4.71399e+07
4.68376e+07
4.6536e+07
4.62344e+07
4.59331e+07
4.56318e+07
4.53305e+07
4.50292e+07
4.47279e+07
4.44264e+07
4.41249e+07
4.38233e+07
4.35215e+07
4.32197e+07
4.29176e+07
4.26161e+07
4.23144e+07
4.20145e+07
4.17168e+07
4.1414e+07
4.11103e+07
4.08094e+07
4.05087e+07
4.02076e+07
3.99063e+07
3.96052e+07
3.93041e+07
3.90031e+07
3.87023e+07
3.84015e+07
3.81007e+07
3.78e+07
3.74992e+07
3.71984e+07
3.68975e+07
3.65966e+07
3.62957e+07
3.59948e+07
3.5694e+07
3.53933e+07
3.50927e+07
3.4792e+07
3.44913e+07
3.41905e+07
3.38895e+07
3.35885e+07
3.32874e+07
3.29863e+07
3.26856e+07
3.23852e+07
3.20849e+07
3.17843e+07
3.14831e+07
3.11817e+07
3.08784e+07
3.05758e+07
3.02772e+07
2.99771e+07
2.96757e+07
2.93745e+07
2.90728e+07
2.87714e+07
2.847e+07
2.81687e+07
2.78675e+07
2.75663e+07
2.72652e+07
2.69641e+07
2.6663e+07
2.63619e+07
2.60609e+07
2.57598e+07
2.54587e+07
2.51577e+07
2.48566e+07
2.45556e+07
2.42545e+07
2.39533e+07
2.3652e+07
2.33508e+07
2.30496e+07
2.27484e+07
2.24472e+07
2.2146e+07
2.18447e+07
2.15435e+07
2.12423e+07
2.09411e+07
2.06398e+07
2.03384e+07
2.00371e+07
1.97359e+07
1.94348e+07
1.91338e+07
1.88328e+07
1.85317e+07
1.823e+07
1.79283e+07
1.76268e+07
1.73254e+07
1.70242e+07
1.67231e+07
1.6422e+07
1.61209e+07
1.58199e+07
1.55189e+07
1.52179e+07
1.49169e+07
1.46159e+07
1.43149e+07
1.40138e+07
1.37128e+07
1.34118e+07
1.31107e+07
1.28096e+07
1.25085e+07
1.22074e+07
1.19062e+07
1.16051e+07
1.13041e+07
1.10032e+07
1.07023e+07
1.04015e+07
1.01006e+07
9.79975e+06
9.49887e+06
9.19799e+06
8.89709e+06
8.59619e+06
8.29533e+06
7.99445e+06
7.69374e+06
7.39312e+06
7.09263e+06
6.79205e+06
6.49121e+06
6.1906e+06
5.89016e+06
5.58997e+06
5.29001e+06
4.99029e+06
4.69084e+06
4.39185e+06
4.09345e+06
3.79602e+06
3.50001e+06
3.20573e+06
2.91428e+06
2.62626e+06
2.34412e+06
2.06761e+06
1.80093e+06
1.53823e+06
1.29069e+06
1.03501e+06
899175
1.29063e+06
7.89338e+07
8.55671e+07
8.74971e+07
8.76389e+07
8.76374e+07
8.74174e+07
8.72988e+07
8.71177e+07
8.69462e+07
8.67394e+07
8.65197e+07
8.62793e+07
8.60305e+07
8.57677e+07
8.55175e+07
8.52324e+07
8.50965e+07
8.46183e+07
8.56965e+07
8.40492e+07
8.39783e+07
8.35575e+07
8.32908e+07
8.29923e+07
8.2714e+07
8.24313e+07
8.21517e+07
8.18713e+07
8.15915e+07
8.13115e+07
8.10318e+07
8.07521e+07
8.04725e+07
8.0193e+07
7.99136e+07
7.96343e+07
7.93554e+07
7.90765e+07
7.87983e+07
7.85201e+07
7.82413e+07
7.79634e+07
7.76753e+07
7.73883e+07
7.71188e+07
7.68413e+07
7.65572e+07
7.62762e+07
7.59943e+07
7.57136e+07
7.54332e+07
7.51529e+07
7.48729e+07
7.4593e+07
7.43131e+07
7.40333e+07
7.37535e+07
7.34737e+07
7.31939e+07
7.29141e+07
7.26343e+07
7.23545e+07
7.20748e+07
7.1795e+07
7.15153e+07
7.12355e+07
7.09558e+07
7.06758e+07
7.03964e+07
7.01161e+07
6.98385e+07
6.95569e+07
6.9292e+07
6.90005e+07
6.88369e+07
6.83827e+07
6.92247e+07
6.78301e+07
6.77141e+07
6.73249e+07
6.70608e+07
6.67565e+07
6.64746e+07
6.61953e+07
6.5916e+07
6.5637e+07
6.53578e+07
6.50785e+07
6.47985e+07
6.45181e+07
6.42379e+07
6.39577e+07
6.36784e+07
6.33984e+07
6.3121e+07
6.28395e+07
6.25571e+07
6.22852e+07
6.20055e+07
6.17234e+07
6.14446e+07
6.11643e+07
6.08848e+07
6.06051e+07
6.03254e+07
6.00459e+07
5.97665e+07
5.94873e+07
5.9208e+07
5.89281e+07
5.86478e+07
5.83676e+07
5.80873e+07
5.78072e+07
5.75272e+07
5.72474e+07
5.69676e+07
5.66879e+07
5.64082e+07
5.61286e+07
5.58489e+07
5.55692e+07
5.52895e+07
5.50099e+07
5.47302e+07
5.44505e+07
5.41707e+07
5.3891e+07
5.36112e+07
5.33315e+07
5.30517e+07
5.27719e+07
5.24922e+07
5.22124e+07
5.19327e+07
5.1653e+07
5.13732e+07
5.10935e+07
5.08138e+07
5.05341e+07
5.02545e+07
4.99747e+07
4.9695e+07
4.94152e+07
4.91355e+07
4.88556e+07
4.85759e+07
4.82957e+07
4.8016e+07
4.77356e+07
4.74564e+07
4.71833e+07
4.69074e+07
4.66445e+07
4.63652e+07
4.60807e+07
4.58041e+07
4.55163e+07
4.52259e+07
4.49468e+07
4.46693e+07
4.43809e+07
4.40998e+07
4.38191e+07
4.35387e+07
4.32588e+07
4.29787e+07
4.26988e+07
4.24188e+07
4.21388e+07
4.18589e+07
4.15789e+07
4.12988e+07
4.10187e+07
4.07385e+07
4.04581e+07
4.01777e+07
3.98968e+07
3.96163e+07
3.93349e+07
3.9056e+07
3.87804e+07
3.84979e+07
3.82149e+07
3.7936e+07
3.76572e+07
3.73776e+07
3.70975e+07
3.68177e+07
3.65379e+07
3.62582e+07
3.59787e+07
3.56992e+07
3.54198e+07
3.51403e+07
3.48607e+07
3.45811e+07
3.43015e+07
3.40218e+07
3.37422e+07
3.34626e+07
3.31831e+07
3.29036e+07
3.26242e+07
3.23447e+07
3.20653e+07
3.17857e+07
3.15061e+07
3.12263e+07
3.09465e+07
3.06666e+07
3.0387e+07
3.0108e+07
2.9829e+07
2.95499e+07
2.92703e+07
2.89908e+07
2.87085e+07
2.84263e+07
2.81496e+07
2.78708e+07
2.759e+07
2.73099e+07
2.70295e+07
2.67494e+07
2.64694e+07
2.61895e+07
2.59096e+07
2.56298e+07
2.535e+07
2.50703e+07
2.47905e+07
2.45108e+07
2.4231e+07
2.39512e+07
2.36715e+07
2.33917e+07
2.3112e+07
2.28322e+07
2.25524e+07
2.22725e+07
2.19927e+07
2.17129e+07
2.14331e+07
2.11532e+07
2.08734e+07
2.05935e+07
2.03136e+07
2.00338e+07
1.97539e+07
1.94739e+07
1.9194e+07
1.8914e+07
1.86341e+07
1.83543e+07
1.80746e+07
1.77949e+07
1.75154e+07
1.72357e+07
1.69554e+07
1.66752e+07
1.63952e+07
1.61153e+07
1.58356e+07
1.55559e+07
1.52763e+07
1.49967e+07
1.47171e+07
1.44376e+07
1.4158e+07
1.38784e+07
1.3599e+07
1.33195e+07
1.30399e+07
1.27604e+07
1.2481e+07
1.22015e+07
1.1922e+07
1.16425e+07
1.1363e+07
1.10835e+07
1.08041e+07
1.05247e+07
1.02455e+07
9.96632e+06
9.68719e+06
9.40812e+06
9.12905e+06
8.85001e+06
8.571e+06
8.29207e+06
8.01314e+06
7.73427e+06
7.45549e+06
7.17692e+06
6.89851e+06
6.62048e+06
6.34243e+06
6.06404e+06
5.78615e+06
5.50857e+06
5.23134e+06
4.95453e+06
4.67809e+06
4.40204e+06
4.12665e+06
3.85197e+06
3.57822e+06
3.30582e+06
3.03463e+06
2.76522e+06
2.49727e+06
2.23227e+06
1.96868e+06
1.70893e+06
1.4496e+06
1.20939e+06
1.0125e+06
1.05781e+06
1.58304e+06
6.79153e+07
7.699e+07
8.08023e+07
8.1686e+07
8.18369e+07
8.15828e+07
8.1342e+07
8.10534e+07
8.07955e+07
8.05318e+07
8.02777e+07
8.00208e+07
7.97671e+07
7.95079e+07
7.92583e+07
7.89802e+07
7.87538e+07
7.8333e+07
7.80413e+07
7.80122e+07
7.77373e+07
7.7452e+07
7.71901e+07
7.69207e+07
7.66612e+07
7.63994e+07
7.61402e+07
7.58803e+07
7.5621e+07
7.53616e+07
7.51023e+07
7.4843e+07
7.45839e+07
7.43247e+07
7.40657e+07
7.38067e+07
7.35482e+07
7.32896e+07
7.30322e+07
7.27752e+07
7.25187e+07
7.22641e+07
7.19951e+07
7.17236e+07
7.14778e+07
7.1222e+07
7.0955e+07
7.06941e+07
7.04327e+07
7.01727e+07
6.99132e+07
6.96537e+07
6.93945e+07
6.91352e+07
6.88759e+07
6.86166e+07
6.83573e+07
6.8098e+07
6.78388e+07
6.75795e+07
6.73202e+07
6.70609e+07
6.68017e+07
6.65424e+07
6.62831e+07
6.60238e+07
6.57646e+07
6.55053e+07
6.52463e+07
6.49869e+07
6.47294e+07
6.44698e+07
6.42186e+07
6.396e+07
6.3722e+07
6.34694e+07
6.30237e+07
6.27922e+07
6.26579e+07
6.238e+07
6.21466e+07
6.18685e+07
6.16074e+07
6.13525e+07
6.10944e+07
6.08364e+07
6.05777e+07
6.03187e+07
6.00589e+07
5.97987e+07
5.95386e+07
5.92787e+07
5.90198e+07
5.87602e+07
5.85044e+07
5.82428e+07
5.79801e+07
5.77318e+07
5.74721e+07
5.72089e+07
5.6951e+07
5.66911e+07
5.6432e+07
5.61727e+07
5.59133e+07
5.56543e+07
5.53953e+07
5.51366e+07
5.48779e+07
5.46184e+07
5.43586e+07
5.40988e+07
5.3839e+07
5.35795e+07
5.33201e+07
5.30608e+07
5.28016e+07
5.25425e+07
5.22833e+07
5.20242e+07
5.1765e+07
5.15059e+07
5.12467e+07
5.09875e+07
5.07283e+07
5.04691e+07
5.02099e+07
4.99506e+07
4.96914e+07
4.94321e+07
4.91729e+07
4.89137e+07
4.86544e+07
4.83952e+07
4.8136e+07
4.78768e+07
4.76175e+07
4.73584e+07
4.70992e+07
4.684e+07
4.65808e+07
4.63216e+07
4.60623e+07
4.5803e+07
4.55438e+07
4.52843e+07
4.50249e+07
4.47646e+07
4.4505e+07
4.42427e+07
4.39843e+07
4.37301e+07
4.34699e+07
4.32437e+07
4.29923e+07
4.27121e+07
4.24541e+07
4.21936e+07
4.1936e+07
4.16622e+07
4.14005e+07
4.11344e+07
4.08743e+07
4.06158e+07
4.03565e+07
4.00977e+07
3.98384e+07
3.95792e+07
3.93198e+07
3.90605e+07
3.88011e+07
3.85418e+07
3.82823e+07
3.80229e+07
3.77634e+07
3.75038e+07
3.7244e+07
3.69835e+07
3.67233e+07
3.64613e+07
3.62026e+07
3.59488e+07
3.5686e+07
3.54225e+07
3.51648e+07
3.49076e+07
3.46486e+07
3.43891e+07
3.41298e+07
3.38705e+07
3.36115e+07
3.33526e+07
3.30937e+07
3.28348e+07
3.25758e+07
3.23168e+07
3.20578e+07
3.17987e+07
3.15395e+07
3.12804e+07
3.10213e+07
3.07623e+07
3.05034e+07
3.02446e+07
2.99857e+07
2.97268e+07
2.94678e+07
2.92087e+07
2.89494e+07
2.86902e+07
2.84307e+07
2.81715e+07
2.79132e+07
2.7655e+07
2.73967e+07
2.71381e+07
2.68798e+07
2.66173e+07
2.6355e+07
2.60997e+07
2.58415e+07
2.55805e+07
2.53208e+07
2.50609e+07
2.48014e+07
2.45421e+07
2.42829e+07
2.40237e+07
2.37645e+07
2.35054e+07
2.32463e+07
2.29872e+07
2.2728e+07
2.24689e+07
2.22097e+07
2.19506e+07
2.16915e+07
2.14324e+07
2.11732e+07
2.0914e+07
2.06548e+07
2.03957e+07
2.01365e+07
1.98774e+07
1.96183e+07
1.93591e+07
1.90999e+07
1.88407e+07
1.85815e+07
1.83223e+07
1.8063e+07
1.78037e+07
1.75444e+07
1.72853e+07
1.70261e+07
1.67672e+07
1.65082e+07
1.62496e+07
1.59908e+07
1.57311e+07
1.54717e+07
1.52126e+07
1.49535e+07
1.46947e+07
1.44358e+07
1.4177e+07
1.39183e+07
1.36595e+07
1.34008e+07
1.31421e+07
1.28834e+07
1.26248e+07
1.23663e+07
1.21076e+07
1.18491e+07
1.15906e+07
1.13322e+07
1.10737e+07
1.08152e+07
1.05568e+07
1.02984e+07
1.00402e+07
9.78195e+06
9.52394e+06
9.26598e+06
9.00814e+06
8.7504e+06
8.49268e+06
8.23507e+06
7.97755e+06
7.72017e+06
7.46286e+06
7.20569e+06
6.9487e+06
6.69202e+06
6.43556e+06
6.17981e+06
5.92423e+06
5.66816e+06
5.41285e+06
5.15818e+06
4.90401e+06
4.65048e+06
4.39759e+06
4.14532e+06
3.89387e+06
3.64337e+06
3.39398e+06
3.14603e+06
2.89891e+06
2.65286e+06
2.40707e+06
2.16281e+06
1.9188e+06
1.67884e+06
1.44661e+06
1.25569e+06
1.15744e+06
1.31335e+06
1.77609e+06
5.8682e+07
6.86434e+07
7.37265e+07
7.52685e+07
7.56851e+07
7.54865e+07
7.51962e+07
7.484e+07
7.45175e+07
7.4207e+07
7.39225e+07
7.36503e+07
7.3392e+07
7.31368e+07
7.28934e+07
7.26341e+07
7.23904e+07
7.21037e+07
7.18713e+07
7.16875e+07
7.14497e+07
7.12175e+07
7.09797e+07
7.07351e+07
7.04962e+07
7.02558e+07
7.00173e+07
6.97783e+07
6.95399e+07
6.93014e+07
6.9063e+07
6.88246e+07
6.85862e+07
6.83478e+07
6.81096e+07
6.78712e+07
6.76334e+07
6.73954e+07
6.71594e+07
6.69233e+07
6.66901e+07
6.64583e+07
6.62098e+07
6.59601e+07
6.57344e+07
6.54975e+07
6.52487e+07
6.50082e+07
6.47681e+07
6.45293e+07
6.42911e+07
6.40529e+07
6.38148e+07
6.35765e+07
6.33382e+07
6.30999e+07
6.28615e+07
6.26231e+07
6.23848e+07
6.21464e+07
6.1908e+07
6.16696e+07
6.14312e+07
6.11928e+07
6.09544e+07
6.0716e+07
6.04777e+07
6.02393e+07
6.00013e+07
5.97629e+07
5.95261e+07
5.92877e+07
5.90544e+07
5.88142e+07
5.857e+07
5.83276e+07
5.80394e+07
5.77954e+07
5.75876e+07
5.73597e+07
5.7143e+07
5.68901e+07
5.66519e+07
5.64211e+07
5.61845e+07
5.59473e+07
5.57095e+07
5.54714e+07
5.52322e+07
5.49924e+07
5.47528e+07
5.45135e+07
5.42753e+07
5.40365e+07
5.38031e+07
5.35603e+07
5.33173e+07
5.30953e+07
5.28558e+07
5.26116e+07
5.23749e+07
5.21358e+07
5.18974e+07
5.1659e+07
5.14203e+07
5.1182e+07
5.09439e+07
5.07061e+07
5.04685e+07
5.02298e+07
4.99907e+07
4.97518e+07
4.95129e+07
4.92743e+07
4.90359e+07
4.87976e+07
4.85593e+07
4.83211e+07
4.80829e+07
4.78447e+07
4.76064e+07
4.73682e+07
4.71299e+07
4.68916e+07
4.66533e+07
4.6415e+07
4.61766e+07
4.59383e+07
4.57e+07
4.54616e+07
4.52233e+07
4.4985e+07
4.47467e+07
4.45083e+07
4.427e+07
4.40317e+07
4.37934e+07
4.35551e+07
4.33168e+07
4.30785e+07
4.28402e+07
4.26019e+07
4.23636e+07
4.21252e+07
4.18868e+07
4.16481e+07
4.14095e+07
4.11697e+07
4.09307e+07
4.06867e+07
4.04467e+07
4.01966e+07
3.99441e+07
3.98354e+07
3.95855e+07
3.92637e+07
3.90449e+07
3.88193e+07
3.85804e+07
3.83102e+07
3.80738e+07
3.783e+07
3.75903e+07
3.7355e+07
3.71169e+07
3.68797e+07
3.66415e+07
3.64034e+07
3.61651e+07
3.59268e+07
3.56884e+07
3.54501e+07
3.52117e+07
3.49734e+07
3.4735e+07
3.44965e+07
3.42578e+07
3.40181e+07
3.37786e+07
3.3536e+07
3.32988e+07
3.30675e+07
3.28232e+07
3.25795e+07
3.23441e+07
3.21093e+07
3.18713e+07
3.16324e+07
3.13941e+07
3.11558e+07
3.09178e+07
3.06799e+07
3.0442e+07
3.02041e+07
2.99661e+07
2.9728e+07
2.94899e+07
2.92517e+07
2.90135e+07
2.87753e+07
2.85372e+07
2.82991e+07
2.80612e+07
2.78233e+07
2.75854e+07
2.73474e+07
2.71094e+07
2.68714e+07
2.6633e+07
2.63946e+07
2.61559e+07
2.59175e+07
2.56804e+07
2.54434e+07
2.52063e+07
2.49693e+07
2.47329e+07
2.44907e+07
2.42475e+07
2.40144e+07
2.37777e+07
2.35367e+07
2.32978e+07
2.30588e+07
2.28204e+07
2.25823e+07
2.23441e+07
2.2106e+07
2.18679e+07
2.16299e+07
2.13919e+07
2.11539e+07
2.09157e+07
2.06776e+07
2.04395e+07
2.02015e+07
1.99634e+07
1.97254e+07
1.94872e+07
1.92491e+07
1.9011e+07
1.87729e+07
1.8535e+07
1.8297e+07
1.8059e+07
1.7821e+07
1.75829e+07
1.73448e+07
1.71068e+07
1.68686e+07
1.66304e+07
1.63923e+07
1.61542e+07
1.59161e+07
1.56781e+07
1.54404e+07
1.52026e+07
1.49654e+07
1.47281e+07
1.44894e+07
1.42511e+07
1.40134e+07
1.37756e+07
1.35381e+07
1.33006e+07
1.30632e+07
1.28258e+07
1.25884e+07
1.2351e+07
1.21136e+07
1.18763e+07
1.16391e+07
1.1402e+07
1.11649e+07
1.09279e+07
1.0691e+07
1.04541e+07
1.02172e+07
9.98035e+06
9.74358e+06
9.50693e+06
9.27037e+06
9.03389e+06
8.79772e+06
8.56164e+06
8.32574e+06
8.09e+06
7.85431e+06
7.61885e+06
7.38355e+06
7.14844e+06
6.91349e+06
6.67883e+06
6.44446e+06
6.21049e+06
5.97677e+06
5.74422e+06
5.51218e+06
5.27936e+06
5.04756e+06
4.81689e+06
4.58699e+06
4.35795e+06
4.12983e+06
3.90268e+06
3.67665e+06
3.4518e+06
3.22835e+06
3.00672e+06
2.78582e+06
2.56587e+06
2.34601e+06
2.12794e+06
1.91207e+06
1.70493e+06
1.51725e+06
1.38932e+06
1.36603e+06
1.54569e+06
1.8931e+06
5.1106e+07
6.0921e+07
6.66291e+07
6.86659e+07
6.93747e+07
6.92933e+07
6.90145e+07
6.86325e+07
6.82721e+07
6.793e+07
6.76236e+07
6.73402e+07
6.70792e+07
6.68289e+07
6.65924e+07
6.63507e+07
6.61223e+07
6.58878e+07
6.5666e+07
6.54682e+07
6.52561e+07
6.50482e+07
6.48296e+07
6.46093e+07
6.4391e+07
6.41719e+07
6.3954e+07
6.37359e+07
6.35182e+07
6.33004e+07
6.30826e+07
6.28649e+07
6.26471e+07
6.24293e+07
6.22116e+07
6.19936e+07
6.17763e+07
6.15586e+07
6.13435e+07
6.11279e+07
6.09184e+07
6.07116e+07
6.04876e+07
6.02483e+07
6.00418e+07
5.98301e+07
5.95975e+07
5.93774e+07
5.91588e+07
5.8941e+07
5.87242e+07
5.85069e+07
5.82898e+07
5.80723e+07
5.78548e+07
5.76373e+07
5.74196e+07
5.7202e+07
5.69843e+07
5.67666e+07
5.65489e+07
5.63312e+07
5.61135e+07
5.58958e+07
5.56781e+07
5.54604e+07
5.52428e+07
5.50251e+07
5.48078e+07
5.45902e+07
5.43737e+07
5.41563e+07
5.39407e+07
5.37225e+07
5.34966e+07
5.32711e+07
5.30334e+07
5.28107e+07
5.2593e+07
5.23838e+07
5.21935e+07
5.19656e+07
5.17445e+07
5.15389e+07
5.13236e+07
5.11066e+07
5.08896e+07
5.06722e+07
5.04532e+07
5.02336e+07
5.00143e+07
4.97954e+07
4.95773e+07
4.9359e+07
4.91473e+07
4.89249e+07
4.87043e+07
4.85062e+07
4.82854e+07
4.80594e+07
4.7844e+07
4.76259e+07
4.74079e+07
4.71902e+07
4.69718e+07
4.67542e+07
4.65367e+07
4.63197e+07
4.61032e+07
4.58851e+07
4.56663e+07
4.5448e+07
4.52298e+07
4.5012e+07
4.47944e+07
4.45769e+07
4.43594e+07
4.4142e+07
4.39245e+07
4.3707e+07
4.34895e+07
4.32719e+07
4.30543e+07
4.28368e+07
4.26192e+07
4.24016e+07
4.21839e+07
4.19663e+07
4.17487e+07
4.15311e+07
4.13135e+07
4.10959e+07
4.08783e+07
4.06607e+07
4.04431e+07
4.02255e+07
4.00079e+07
3.97903e+07
3.95727e+07
3.93552e+07
3.91376e+07
3.892e+07
3.87024e+07
3.84847e+07
3.8267e+07
3.8049e+07
3.78311e+07
3.76116e+07
3.73938e+07
3.71656e+07
3.69544e+07
3.66619e+07
3.65533e+07
3.55667e+07
3.61163e+07
3.57985e+07
3.56404e+07
3.5499e+07
3.53048e+07
3.49708e+07
3.47626e+07
3.45574e+07
3.43403e+07
3.41282e+07
3.39112e+07
3.36951e+07
3.34778e+07
3.32606e+07
3.30431e+07
3.28256e+07
3.26081e+07
3.23906e+07
3.21731e+07
3.19557e+07
3.17382e+07
3.15208e+07
3.13029e+07
3.10842e+07
3.08654e+07
3.06421e+07
3.04245e+07
3.02137e+07
2.99905e+07
2.9767e+07
2.95532e+07
2.93412e+07
2.91235e+07
2.8905e+07
2.86874e+07
2.84699e+07
2.82528e+07
2.80358e+07
2.78187e+07
2.76016e+07
2.73844e+07
2.71671e+07
2.69497e+07
2.67323e+07
2.65148e+07
2.62974e+07
2.608e+07
2.58627e+07
2.56455e+07
2.54284e+07
2.52114e+07
2.49943e+07
2.47771e+07
2.45599e+07
2.43423e+07
2.41246e+07
2.39063e+07
2.36885e+07
2.34724e+07
2.32565e+07
2.30403e+07
2.28249e+07
2.26099e+07
2.23884e+07
2.21663e+07
2.19536e+07
2.17372e+07
2.15161e+07
2.12979e+07
2.10799e+07
2.08624e+07
2.06453e+07
2.0428e+07
2.02109e+07
1.99938e+07
1.97767e+07
1.95596e+07
1.93424e+07
1.91252e+07
1.8908e+07
1.86908e+07
1.84737e+07
1.82566e+07
1.80394e+07
1.78222e+07
1.7605e+07
1.73878e+07
1.71707e+07
1.69537e+07
1.67368e+07
1.65197e+07
1.63027e+07
1.60857e+07
1.58686e+07
1.56515e+07
1.54344e+07
1.52172e+07
1.50001e+07
1.4783e+07
1.4566e+07
1.4349e+07
1.41323e+07
1.39155e+07
1.36997e+07
1.34839e+07
1.3266e+07
1.30488e+07
1.28323e+07
1.26157e+07
1.23995e+07
1.21833e+07
1.19671e+07
1.1751e+07
1.15348e+07
1.13187e+07
1.11027e+07
1.08868e+07
1.06709e+07
1.04552e+07
1.02395e+07
1.0024e+07
9.80861e+06
9.59324e+06
9.37794e+06
9.16276e+06
8.94769e+06
8.73273e+06
8.51787e+06
8.30315e+06
8.08891e+06
7.87481e+06
7.6609e+06
7.44725e+06
7.23372e+06
7.02051e+06
6.80758e+06
6.5949e+06
6.38252e+06
6.17059e+06
5.95907e+06
5.74807e+06
5.53732e+06
5.32823e+06
5.12001e+06
4.91089e+06
4.70301e+06
4.49679e+06
4.29163e+06
4.08762e+06
3.88487e+06
3.68346e+06
3.48355e+06
3.28513e+06
3.08849e+06
2.89427e+06
2.70107e+06
2.50916e+06
2.31817e+06
2.13069e+06
1.94876e+06
1.7815e+06
1.64234e+06
1.56789e+06
1.58201e+06
1.74169e+06
1.96947e+06
4.46208e+07
5.37185e+07
5.95732e+07
6.19374e+07
6.28924e+07
6.2943e+07
6.27095e+07
6.23319e+07
6.19568e+07
6.15989e+07
6.12806e+07
6.09924e+07
6.07326e+07
6.04898e+07
6.02631e+07
6.00403e+07
5.98239e+07
5.96255e+07
5.94434e+07
5.92343e+07
5.90321e+07
5.8848e+07
5.86511e+07
5.84539e+07
5.82567e+07
5.80589e+07
5.78619e+07
5.76647e+07
5.74678e+07
5.72708e+07
5.70738e+07
5.68768e+07
5.66798e+07
5.64826e+07
5.62856e+07
5.60882e+07
5.58915e+07
5.56939e+07
5.54997e+07
5.5303e+07
5.51179e+07
5.4928e+07
5.47394e+07
5.45384e+07
5.43259e+07
5.41265e+07
5.39173e+07
5.37185e+07
5.3523e+07
5.33265e+07
5.31312e+07
5.29349e+07
5.27388e+07
5.25423e+07
5.23457e+07
5.21489e+07
5.19522e+07
5.17553e+07
5.15585e+07
5.13616e+07
5.11647e+07
5.09678e+07
5.07709e+07
5.0574e+07
5.03771e+07
5.01802e+07
4.99834e+07
4.97866e+07
4.959e+07
4.93933e+07
4.91972e+07
4.90005e+07
4.88041e+07
4.86063e+07
4.83988e+07
4.82033e+07
4.80134e+07
4.7791e+07
4.7583e+07
4.73861e+07
4.71983e+07
4.7016e+07
4.68229e+07
4.66363e+07
4.64415e+07
4.62436e+07
4.60473e+07
4.58508e+07
4.56523e+07
4.54529e+07
4.52539e+07
4.50557e+07
4.48575e+07
4.466e+07
4.44709e+07
4.42643e+07
4.40651e+07
4.38966e+07
4.36944e+07
4.34876e+07
4.32925e+07
4.30958e+07
4.28979e+07
4.2701e+07
4.25031e+07
4.23062e+07
4.21094e+07
4.19134e+07
4.17182e+07
4.15207e+07
4.13224e+07
4.11248e+07
4.09273e+07
4.07304e+07
4.05337e+07
4.03372e+07
4.01406e+07
3.99441e+07
3.97475e+07
3.95508e+07
3.93541e+07
3.91574e+07
3.89606e+07
3.87638e+07
3.85671e+07
3.83703e+07
3.81735e+07
3.79767e+07
3.77799e+07
3.75831e+07
3.73863e+07
3.71896e+07
3.69928e+07
3.6796e+07
3.65993e+07
3.64025e+07
3.62057e+07
3.6009e+07
3.58123e+07
3.56155e+07
3.54188e+07
3.5222e+07
3.50252e+07
3.48284e+07
3.46316e+07
3.44345e+07
3.42376e+07
3.40395e+07
3.38434e+07
3.36418e+07
3.34565e+07
3.32437e+07
3.31366e+07
3.29481e+07
3.26143e+07
3.24402e+07
3.21794e+07
3.2093e+07
3.11612e+07
3.17036e+07
3.13998e+07
3.12783e+07
3.10752e+07
3.08889e+07
3.06923e+07
3.04975e+07
3.03011e+07
3.01049e+07
2.99083e+07
2.97118e+07
2.95152e+07
2.93187e+07
2.91221e+07
2.89258e+07
2.87293e+07
2.85331e+07
2.83363e+07
2.8139e+07
2.79411e+07
2.77365e+07
2.7542e+07
2.73512e+07
2.71431e+07
2.69423e+07
2.67512e+07
2.65629e+07
2.63655e+07
2.61672e+07
2.59704e+07
2.57739e+07
2.55778e+07
2.53818e+07
2.51857e+07
2.49895e+07
2.47932e+07
2.45968e+07
2.44003e+07
2.42038e+07
2.40072e+07
2.38105e+07
2.3614e+07
2.34176e+07
2.32214e+07
2.30252e+07
2.28291e+07
2.2633e+07
2.24369e+07
2.22407e+07
2.2044e+07
2.18472e+07
2.16494e+07
2.14521e+07
2.12573e+07
2.10626e+07
2.08672e+07
2.06737e+07
2.04812e+07
2.0282e+07
2.00773e+07
1.98849e+07
1.96912e+07
1.94894e+07
1.9292e+07
1.90954e+07
1.8899e+07
1.87031e+07
1.85069e+07
1.83109e+07
1.81149e+07
1.79189e+07
1.77228e+07
1.75268e+07
1.73306e+07
1.71345e+07
1.69384e+07
1.67423e+07
1.65463e+07
1.63502e+07
1.6154e+07
1.59579e+07
1.57619e+07
1.55659e+07
1.53701e+07
1.51742e+07
1.49784e+07
1.47826e+07
1.45867e+07
1.43908e+07
1.41949e+07
1.3999e+07
1.3803e+07
1.36071e+07
1.34113e+07
1.32154e+07
1.30196e+07
1.28241e+07
1.26286e+07
1.24344e+07
1.22403e+07
1.20433e+07
1.18473e+07
1.16524e+07
1.14573e+07
1.12626e+07
1.10679e+07
1.08733e+07
1.06786e+07
1.04839e+07
1.02894e+07
1.00949e+07
9.90062e+06
9.70635e+06
9.51229e+06
9.31837e+06
9.12462e+06
8.93105e+06
8.73753e+06
8.54412e+06
8.35093e+06
8.15788e+06
7.96496e+06
7.77212e+06
7.57949e+06
7.38756e+06
7.19584e+06
7.00432e+06
6.81317e+06
6.62222e+06
6.4317e+06
6.24156e+06
6.05181e+06
5.86252e+06
5.67382e+06
5.48564e+06
5.29812e+06
5.11084e+06
4.92577e+06
4.74211e+06
4.55725e+06
4.37384e+06
4.19281e+06
4.01304e+06
3.83474e+06
3.65807e+06
3.48311e+06
3.31005e+06
3.13886e+06
2.9699e+06
2.80395e+06
2.63959e+06
2.4775e+06
2.31754e+06
2.16329e+06
2.01794e+06
1.8915e+06
1.79565e+06
1.75791e+06
1.78221e+06
1.89981e+06
2.01343e+06
3.89934e+07
4.70261e+07
5.26759e+07
5.51978e+07
5.6329e+07
5.65048e+07
5.63341e+07
5.59836e+07
5.56142e+07
5.5256e+07
5.49368e+07
5.46512e+07
5.43976e+07
5.41655e+07
5.39518e+07
5.37481e+07
5.35531e+07
5.33791e+07
5.3207e+07
5.30142e+07
5.28358e+07
5.2668e+07
5.24918e+07
5.23164e+07
5.21401e+07
5.19635e+07
5.17873e+07
5.1611e+07
5.14348e+07
5.12586e+07
5.10824e+07
5.09061e+07
5.07297e+07
5.05532e+07
5.03768e+07
5.01999e+07
5.00236e+07
4.98459e+07
4.9672e+07
4.94927e+07
4.93316e+07
4.9162e+07
4.90231e+07
4.8836e+07
4.86127e+07
4.84406e+07
4.82546e+07
4.80752e+07
4.79041e+07
4.77285e+07
4.75548e+07
4.73794e+07
4.72042e+07
4.70285e+07
4.68528e+07
4.66768e+07
4.65008e+07
4.63248e+07
4.61487e+07
4.59725e+07
4.57964e+07
4.56203e+07
4.54441e+07
4.5268e+07
4.50919e+07
4.49157e+07
4.47397e+07
4.45636e+07
4.43878e+07
4.42118e+07
4.40363e+07
4.38603e+07
4.36841e+07
4.35074e+07
4.3325e+07
4.31483e+07
4.2985e+07
4.27873e+07
4.25962e+07
4.2392e+07
4.22276e+07
4.20939e+07
4.19158e+07
4.1748e+07
4.15751e+07
4.13949e+07
4.12196e+07
4.10442e+07
4.0866e+07
4.06867e+07
4.05081e+07
4.03305e+07
4.01514e+07
3.99743e+07
3.98022e+07
3.96192e+07
3.94585e+07
3.93051e+07
3.91146e+07
3.89284e+07
3.87544e+07
3.85801e+07
3.8402e+07
3.8226e+07
3.80483e+07
3.78721e+07
3.76959e+07
3.75209e+07
3.73472e+07
3.71701e+07
3.6992e+07
3.68152e+07
3.66384e+07
3.64624e+07
3.62866e+07
3.6111e+07
3.59353e+07
3.57596e+07
3.55838e+07
3.54079e+07
3.5232e+07
3.50561e+07
3.48801e+07
3.47041e+07
3.45281e+07
3.43521e+07
3.41761e+07
3.40001e+07
3.38241e+07
3.36481e+07
3.34721e+07
3.32962e+07
3.31202e+07
3.29442e+07
3.27682e+07
3.25923e+07
3.24163e+07
3.22404e+07
3.20644e+07
3.18885e+07
3.17125e+07
3.15366e+07
3.13606e+07
3.11846e+07
3.10086e+07
3.08324e+07
3.06565e+07
3.04795e+07
3.03047e+07
3.01263e+07
2.99592e+07
2.97852e+07
2.96328e+07
2.94444e+07
2.92386e+07
2.90657e+07
2.88717e+07
2.86886e+07
2.86264e+07
2.84353e+07
2.81807e+07
2.80199e+07
2.78341e+07
2.76629e+07
2.74864e+07
2.73119e+07
2.71363e+07
2.69608e+07
2.67851e+07
2.66095e+07
2.64338e+07
2.62582e+07
2.60826e+07
2.59072e+07
2.57317e+07
2.55567e+07
2.53811e+07
2.52058e+07
2.50294e+07
2.48468e+07
2.46691e+07
2.44859e+07
2.43061e+07
2.41329e+07
2.39608e+07
2.37969e+07
2.36185e+07
2.34402e+07
2.32643e+07
2.30889e+07
2.29137e+07
2.27388e+07
2.25636e+07
2.23883e+07
2.22129e+07
2.20373e+07
2.18617e+07
2.1686e+07
2.15102e+07
2.13345e+07
2.11587e+07
2.09833e+07
2.08079e+07
2.06327e+07
2.04576e+07
2.02824e+07
2.01073e+07
1.99321e+07
1.97563e+07
1.95806e+07
1.94031e+07
1.92261e+07