/*--------------------------------*- C++ -*----------------------------------*\
| =========                 |                                                 |
| \\      /  F ield         | foam-extend: Open Source CFD                    |
|  \\    /   O peration     | Version:     4.0                                |
|   \\  /    A nd           | Web:         http://www.foam-extend.org         |
|    \\/     M anipulation  |                                                 |
\*---------------------------------------------------------------------------*/
FoamFile
{
    version     2.0;
    format      ascii;
    class       volScalarField;
    location    "1";
    object      sigmaHyd;
}
// * * * * * * * * * * * * * * * * * * * * * * * * * * * * * * * * * * * * * //

dimensions      [1 -1 -2 0 0 0 0];

internalField   nonuniform List<scalar> 
10240
(
-5.84255e+07
-4.83841e+07
-4.82598e+07
-4.78108e+07
-4.82785e+07
-4.84739e+07
-4.86914e+07
-4.87701e+07
-4.87956e+07
-4.8754e+07
-4.86772e+07
-4.85695e+07
-4.8446e+07
-4.83071e+07
-4.81663e+07
-4.80096e+07
-4.78601e+07
-4.76895e+07
-4.74608e+07
-4.73539e+07
-4.72218e+07
-4.70535e+07
-4.69109e+07
-4.67493e+07
-4.65947e+07
-4.64359e+07
-4.62787e+07
-4.61207e+07
-4.59631e+07
-4.58053e+07
-4.56478e+07
-4.54902e+07
-4.53327e+07
-4.51753e+07
-4.50181e+07
-4.48609e+07
-4.4704e+07
-4.45469e+07
-4.43901e+07
-4.42326e+07
-4.40745e+07
-4.39154e+07
-4.37535e+07
-4.35939e+07
-4.34401e+07
-4.32856e+07
-4.31277e+07
-4.29697e+07
-4.2811e+07
-4.26525e+07
-4.24942e+07
-4.23361e+07
-4.21781e+07
-4.20203e+07
-4.18626e+07
-4.17049e+07
-4.15472e+07
-4.13896e+07
-4.1232e+07
-4.10744e+07
-4.09168e+07
-4.07591e+07
-4.06015e+07
-4.04439e+07
-4.02863e+07
-4.01287e+07
-3.99711e+07
-3.98134e+07
-3.96559e+07
-3.94977e+07
-3.93408e+07
-3.91801e+07
-3.90252e+07
-3.88544e+07
-3.8705e+07
-3.85253e+07
-3.83259e+07
-3.82277e+07
-3.80834e+07
-3.79255e+07
-3.77739e+07
-3.76083e+07
-3.74479e+07
-3.72886e+07
-3.71309e+07
-3.69736e+07
-3.68166e+07
-3.66594e+07
-3.6502e+07
-3.63444e+07
-3.61867e+07
-3.60291e+07
-3.58716e+07
-3.5714e+07
-3.55569e+07
-3.53984e+07
-3.52405e+07
-3.50846e+07
-3.49277e+07
-3.47695e+07
-3.4612e+07
-3.44543e+07
-3.42967e+07
-3.41393e+07
-3.39818e+07
-3.38245e+07
-3.36672e+07
-3.351e+07
-3.33526e+07
-3.3195e+07
-3.30372e+07
-3.28792e+07
-3.27213e+07
-3.25634e+07
-3.24056e+07
-3.22478e+07
-3.20902e+07
-3.19326e+07
-3.1775e+07
-3.16174e+07
-3.14598e+07
-3.13023e+07
-3.11447e+07
-3.09872e+07
-3.08296e+07
-3.0672e+07
-3.05145e+07
-3.03568e+07
-3.01992e+07
-3.00416e+07
-2.98839e+07
-2.97263e+07
-2.95686e+07
-2.9411e+07
-2.92534e+07
-2.90958e+07
-2.89383e+07
-2.87807e+07
-2.86231e+07
-2.84655e+07
-2.83079e+07
-2.81503e+07
-2.79928e+07
-2.78352e+07
-2.76776e+07
-2.752e+07
-2.73626e+07
-2.72051e+07
-2.70483e+07
-2.68919e+07
-2.67357e+07
-2.65823e+07
-2.64207e+07
-2.62614e+07
-2.61095e+07
-2.59572e+07
-2.5799e+07
-2.56341e+07
-2.54743e+07
-2.53177e+07
-2.51621e+07
-2.50015e+07
-2.48424e+07
-2.46835e+07
-2.45249e+07
-2.43668e+07
-2.42087e+07
-2.40509e+07
-2.38931e+07
-2.37354e+07
-2.35776e+07
-2.34198e+07
-2.32619e+07
-2.31039e+07
-2.29459e+07
-2.27878e+07
-2.26296e+07
-2.24715e+07
-2.23137e+07
-2.2156e+07
-2.19995e+07
-2.18433e+07
-2.16852e+07
-2.15261e+07
-2.13681e+07
-2.12105e+07
-2.10527e+07
-2.0895e+07
-2.07372e+07
-2.05795e+07
-2.04219e+07
-2.02643e+07
-2.01068e+07
-1.99492e+07
-1.97917e+07
-1.96343e+07
-1.94768e+07
-1.93192e+07
-1.91616e+07
-1.90041e+07
-1.88465e+07
-1.8689e+07
-1.85315e+07
-1.83741e+07
-1.82167e+07
-1.80592e+07
-1.79017e+07
-1.77441e+07
-1.75864e+07
-1.74287e+07
-1.7271e+07
-1.71136e+07
-1.69563e+07
-1.67991e+07
-1.66415e+07
-1.64837e+07
-1.63255e+07
-1.61666e+07
-1.60085e+07
-1.58519e+07
-1.56951e+07
-1.55374e+07
-1.53797e+07
-1.52218e+07
-1.50638e+07
-1.4906e+07
-1.47482e+07
-1.45904e+07
-1.44326e+07
-1.42749e+07
-1.41172e+07
-1.39595e+07
-1.38018e+07
-1.36442e+07
-1.34865e+07
-1.33289e+07
-1.31712e+07
-1.30135e+07
-1.28559e+07
-1.26982e+07
-1.25405e+07
-1.23828e+07
-1.22249e+07
-1.20671e+07
-1.19093e+07
-1.17516e+07
-1.15938e+07
-1.14361e+07
-1.12783e+07
-1.11206e+07
-1.09628e+07
-1.0805e+07
-1.06472e+07
-1.04894e+07
-1.03316e+07
-1.01738e+07
-1.00162e+07
-9.85853e+06
-9.70076e+06
-9.54277e+06
-9.38471e+06
-9.22671e+06
-9.0688e+06
-8.91098e+06
-8.75326e+06
-8.59556e+06
-8.43786e+06
-8.28016e+06
-8.12247e+06
-7.96481e+06
-7.80718e+06
-7.64952e+06
-7.4918e+06
-7.33407e+06
-7.17633e+06
-7.0186e+06
-6.86089e+06
-6.70312e+06
-6.54532e+06
-6.38748e+06
-6.22966e+06
-6.07188e+06
-5.91412e+06
-5.75641e+06
-5.59874e+06
-5.44108e+06
-5.28339e+06
-5.12568e+06
-4.96794e+06
-4.81017e+06
-4.65239e+06
-4.49464e+06
-4.33687e+06
-4.17907e+06
-4.02134e+06
-3.86361e+06
-3.70592e+06
-3.54818e+06
-3.39021e+06
-3.23225e+06
-3.07451e+06
-2.91676e+06
-2.75909e+06
-2.60148e+06
-2.44396e+06
-2.2866e+06
-2.12957e+06
-1.97301e+06
-1.81719e+06
-1.66256e+06
-1.50978e+06
-1.35982e+06
-1.21472e+06
-1.07543e+06
-946656
-827228
-729595
-629879
-558894
-173707
-5.41666e+07
-4.80541e+07
-4.63198e+07
-4.53986e+07
-4.53434e+07
-4.52718e+07
-4.53207e+07
-4.53078e+07
-4.52844e+07
-4.522e+07
-4.51356e+07
-4.50293e+07
-4.49118e+07
-4.47819e+07
-4.46504e+07
-4.45078e+07
-4.43672e+07
-4.42573e+07
-4.40332e+07
-4.38561e+07
-4.37759e+07
-4.36213e+07
-4.34891e+07
-4.33398e+07
-4.31966e+07
-4.30494e+07
-4.29038e+07
-4.27573e+07
-4.26112e+07
-4.2465e+07
-4.23189e+07
-4.21729e+07
-4.20269e+07
-4.18809e+07
-4.17351e+07
-4.15893e+07
-4.14437e+07
-4.12979e+07
-4.11525e+07
-4.10062e+07
-4.08603e+07
-4.0713e+07
-4.05653e+07
-4.04196e+07
-4.02727e+07
-4.01283e+07
-3.99817e+07
-3.98352e+07
-3.96885e+07
-3.95417e+07
-3.93952e+07
-3.92486e+07
-3.91023e+07
-3.8956e+07
-3.88097e+07
-3.86636e+07
-3.85174e+07
-3.83713e+07
-3.82251e+07
-3.8079e+07
-3.79329e+07
-3.77868e+07
-3.76406e+07
-3.74945e+07
-3.73484e+07
-3.72023e+07
-3.70562e+07
-3.69099e+07
-3.67639e+07
-3.66172e+07
-3.64716e+07
-3.63228e+07
-3.61788e+07
-3.60206e+07
-3.58811e+07
-3.56801e+07
-3.55594e+07
-3.54782e+07
-3.53049e+07
-3.51585e+07
-3.50141e+07
-3.4865e+07
-3.47176e+07
-3.45702e+07
-3.44241e+07
-3.42778e+07
-3.41321e+07
-3.3986e+07
-3.384e+07
-3.36939e+07
-3.35476e+07
-3.34015e+07
-3.32553e+07
-3.31094e+07
-3.29635e+07
-3.28169e+07
-3.26717e+07
-3.25257e+07
-3.23805e+07
-3.22342e+07
-3.2088e+07
-3.19421e+07
-3.17958e+07
-3.16499e+07
-3.15038e+07
-3.13579e+07
-3.1212e+07
-3.10661e+07
-3.09201e+07
-3.0774e+07
-3.06277e+07
-3.04813e+07
-3.0335e+07
-3.01886e+07
-3.00424e+07
-2.98962e+07
-2.975e+07
-2.96039e+07
-2.94578e+07
-2.93117e+07
-2.91657e+07
-2.90196e+07
-2.88735e+07
-2.87274e+07
-2.85814e+07
-2.84353e+07
-2.82892e+07
-2.81431e+07
-2.79969e+07
-2.78508e+07
-2.77046e+07
-2.75585e+07
-2.74124e+07
-2.72663e+07
-2.71201e+07
-2.6974e+07
-2.68279e+07
-2.66818e+07
-2.65357e+07
-2.63896e+07
-2.62436e+07
-2.60975e+07
-2.59514e+07
-2.58053e+07
-2.56592e+07
-2.55131e+07
-2.53672e+07
-2.5221e+07
-2.50756e+07
-2.49296e+07
-2.47851e+07
-2.46399e+07
-2.44943e+07
-2.43598e+07
-2.42067e+07
-2.40603e+07
-2.39153e+07
-2.37669e+07
-2.36206e+07
-2.34692e+07
-2.33252e+07
-2.31771e+07
-2.303e+07
-2.28832e+07
-2.27362e+07
-2.25898e+07
-2.24433e+07
-2.2297e+07
-2.21507e+07
-2.20045e+07
-2.18582e+07
-2.17119e+07
-2.15655e+07
-2.14191e+07
-2.12727e+07
-2.11262e+07
-2.09797e+07
-2.08332e+07
-2.06869e+07
-2.05406e+07
-2.03951e+07
-2.02489e+07
-2.01028e+07
-1.9956e+07
-1.98096e+07
-1.96636e+07
-1.95173e+07
-1.93712e+07
-1.92249e+07
-1.90788e+07
-1.89327e+07
-1.87866e+07
-1.86405e+07
-1.84945e+07
-1.83485e+07
-1.82025e+07
-1.80565e+07
-1.79104e+07
-1.77643e+07
-1.76183e+07
-1.74722e+07
-1.73262e+07
-1.71802e+07
-1.70342e+07
-1.68882e+07
-1.67423e+07
-1.65962e+07
-1.64501e+07
-1.6304e+07
-1.61578e+07
-1.60117e+07
-1.58657e+07
-1.57198e+07
-1.55739e+07
-1.54278e+07
-1.52817e+07
-1.51351e+07
-1.49884e+07
-1.48422e+07
-1.4696e+07
-1.45503e+07
-1.44041e+07
-1.42579e+07
-1.41115e+07
-1.39652e+07
-1.38189e+07
-1.36726e+07
-1.35264e+07
-1.33801e+07
-1.32339e+07
-1.30877e+07
-1.29415e+07
-1.27953e+07
-1.26492e+07
-1.2503e+07
-1.23569e+07
-1.22107e+07
-1.20645e+07
-1.19183e+07
-1.17722e+07
-1.1626e+07
-1.14797e+07
-1.13334e+07
-1.11871e+07
-1.10408e+07
-1.08946e+07
-1.07483e+07
-1.06021e+07
-1.04558e+07
-1.03096e+07
-1.01633e+07
-1.0017e+07
-9.87072e+06
-9.72439e+06
-9.57808e+06
-9.43181e+06
-9.28559e+06
-9.1394e+06
-8.9931e+06
-8.84674e+06
-8.70028e+06
-8.55387e+06
-8.40752e+06
-8.26121e+06
-8.115e+06
-7.96878e+06
-7.82258e+06
-7.67638e+06
-7.53018e+06
-7.38401e+06
-7.23784e+06
-7.09167e+06
-6.94546e+06
-6.79924e+06
-6.65299e+06
-6.50677e+06
-6.36055e+06
-6.2143e+06
-6.06802e+06
-5.92171e+06
-5.77542e+06
-5.62915e+06
-5.48291e+06
-5.33667e+06
-5.19049e+06
-5.0443e+06
-4.8981e+06
-4.75187e+06
-4.60563e+06
-4.45938e+06
-4.31309e+06
-4.16686e+06
-4.02059e+06
-3.87432e+06
-3.72808e+06
-3.58184e+06
-3.43559e+06
-3.28934e+06
-3.14304e+06
-2.99663e+06
-2.85041e+06
-2.70417e+06
-2.55802e+06
-2.41191e+06
-2.26592e+06
-2.12005e+06
-1.97449e+06
-1.8294e+06
-1.68488e+06
-1.54135e+06
-1.39924e+06
-1.2591e+06
-1.12224e+06
-988436
-860405
-733197
-611000
-462349
-269015
180411
-5.23185e+07
-4.68427e+07
-4.45877e+07
-4.32432e+07
-4.28801e+07
-4.26195e+07
-4.25535e+07
-4.24744e+07
-4.24153e+07
-4.23338e+07
-4.22437e+07
-4.21382e+07
-4.20258e+07
-4.19027e+07
-4.17838e+07
-4.16443e+07
-4.15804e+07
-4.13611e+07
-4.1743e+07
-4.10859e+07
-4.10325e+07
-4.08245e+07
-4.06993e+07
-4.05549e+07
-4.04206e+07
-4.02826e+07
-4.01464e+07
-4.00093e+07
-3.98727e+07
-3.97359e+07
-3.95992e+07
-3.94625e+07
-3.93259e+07
-3.91893e+07
-3.90528e+07
-3.89162e+07
-3.878e+07
-3.86433e+07
-3.85073e+07
-3.83701e+07
-3.82345e+07
-3.80965e+07
-3.79609e+07
-3.78257e+07
-3.76841e+07
-3.75485e+07
-3.74112e+07
-3.72742e+07
-3.71373e+07
-3.70001e+07
-3.68631e+07
-3.67261e+07
-3.65892e+07
-3.64523e+07
-3.63155e+07
-3.61787e+07
-3.6042e+07
-3.59052e+07
-3.57685e+07
-3.56317e+07
-3.5495e+07
-3.53583e+07
-3.52215e+07
-3.50848e+07
-3.49481e+07
-3.48113e+07
-3.46746e+07
-3.45377e+07
-3.44011e+07
-3.42638e+07
-3.41279e+07
-3.39888e+07
-3.38581e+07
-3.37114e+07
-3.36334e+07
-3.34273e+07
-3.37223e+07
-3.3156e+07
-3.30901e+07
-3.28951e+07
-3.2764e+07
-3.26244e+07
-3.24873e+07
-3.23493e+07
-3.22125e+07
-3.20752e+07
-3.19387e+07
-3.18018e+07
-3.16651e+07
-3.15283e+07
-3.13914e+07
-3.12548e+07
-3.11177e+07
-3.09813e+07
-3.08446e+07
-3.07077e+07
-3.05735e+07
-3.04349e+07
-3.02994e+07
-3.01628e+07
-3.00258e+07
-2.98895e+07
-2.97524e+07
-2.9616e+07
-2.94791e+07
-2.93426e+07
-2.92059e+07
-2.90694e+07
-2.89326e+07
-2.87959e+07
-2.86591e+07
-2.85222e+07
-2.83853e+07
-2.82484e+07
-2.81116e+07
-2.79748e+07
-2.78381e+07
-2.77013e+07
-2.75646e+07
-2.74279e+07
-2.72912e+07
-2.71545e+07
-2.70179e+07
-2.68812e+07
-2.67445e+07
-2.66078e+07
-2.64711e+07
-2.63343e+07
-2.61976e+07
-2.60609e+07
-2.59241e+07
-2.57874e+07
-2.56506e+07
-2.55139e+07
-2.53772e+07
-2.52405e+07
-2.51037e+07
-2.4967e+07
-2.48303e+07
-2.46936e+07
-2.45569e+07
-2.44202e+07
-2.42835e+07
-2.41468e+07
-2.40102e+07
-2.38734e+07
-2.37369e+07
-2.36e+07
-2.34639e+07
-2.33267e+07
-2.31909e+07
-2.30541e+07
-2.29133e+07
-2.27959e+07
-2.2657e+07
-2.25119e+07
-2.23757e+07
-2.22402e+07
-2.21134e+07
-2.19612e+07
-2.18232e+07
-2.16868e+07
-2.15488e+07
-2.14123e+07
-2.12748e+07
-2.1138e+07
-2.10009e+07
-2.0864e+07
-2.07271e+07
-2.05903e+07
-2.04534e+07
-2.03165e+07
-2.01796e+07
-2.00426e+07
-1.99056e+07
-1.97687e+07
-1.96316e+07
-1.94947e+07
-1.93578e+07
-1.92208e+07
-1.90843e+07
-1.89459e+07
-1.881e+07
-1.86733e+07
-1.85363e+07
-1.83997e+07
-1.82628e+07
-1.81262e+07
-1.79893e+07
-1.78527e+07
-1.77159e+07
-1.75793e+07
-1.74426e+07
-1.7306e+07
-1.71693e+07
-1.70327e+07
-1.6896e+07
-1.67594e+07
-1.66227e+07
-1.6486e+07
-1.63493e+07
-1.62127e+07
-1.60761e+07
-1.59395e+07
-1.58029e+07
-1.56663e+07
-1.55296e+07
-1.53929e+07
-1.52562e+07
-1.51195e+07
-1.49828e+07
-1.48462e+07
-1.47094e+07
-1.4573e+07
-1.44361e+07
-1.42995e+07
-1.41624e+07
-1.40258e+07
-1.38896e+07
-1.37516e+07
-1.3615e+07
-1.34781e+07
-1.33413e+07
-1.32044e+07
-1.30675e+07
-1.29307e+07
-1.27938e+07
-1.2657e+07
-1.25202e+07
-1.23834e+07
-1.22466e+07
-1.21098e+07
-1.1973e+07
-1.18362e+07
-1.16995e+07
-1.15627e+07
-1.14259e+07
-1.12891e+07
-1.11523e+07
-1.10156e+07
-1.08788e+07
-1.07419e+07
-1.0605e+07
-1.04681e+07
-1.03312e+07
-1.01944e+07
-1.00575e+07
-9.92067e+06
-9.78383e+06
-9.64698e+06
-9.51013e+06
-9.37323e+06
-9.23632e+06
-9.09938e+06
-8.96246e+06
-8.82555e+06
-8.68869e+06
-8.55185e+06
-8.41492e+06
-8.27807e+06
-8.14108e+06
-8.00414e+06
-7.86723e+06
-7.73034e+06
-7.59353e+06
-7.45668e+06
-7.31986e+06
-7.18306e+06
-7.04625e+06
-6.90948e+06
-6.77267e+06
-6.63589e+06
-6.49906e+06
-6.36226e+06
-6.22542e+06
-6.08858e+06
-5.95176e+06
-5.81491e+06
-5.67806e+06
-5.54116e+06
-5.40428e+06
-5.26742e+06
-5.13058e+06
-4.99373e+06
-4.85693e+06
-4.72012e+06
-4.58331e+06
-4.44648e+06
-4.30962e+06
-4.17278e+06
-4.03589e+06
-3.89907e+06
-3.76221e+06
-3.62535e+06
-3.48847e+06
-3.35163e+06
-3.21471e+06
-3.07781e+06
-2.94107e+06
-2.80412e+06
-2.66731e+06
-2.53048e+06
-2.39372e+06
-2.25701e+06
-2.12044e+06
-1.98397e+06
-1.84773e+06
-1.71195e+06
-1.5766e+06
-1.44213e+06
-1.3087e+06
-1.17663e+06
-1.04662e+06
-917734
-791634
-660714
-526925
-352545
-123982
330408
-4.92748e+07
-4.4469e+07
-4.21636e+07
-4.06569e+07
-4.00557e+07
-3.96413e+07
-3.94632e+07
-3.93176e+07
-3.92192e+07
-3.91179e+07
-3.902e+07
-3.89142e+07
-3.88058e+07
-3.86895e+07
-3.8575e+07
-3.84447e+07
-3.83329e+07
-3.81404e+07
-3.80295e+07
-3.79862e+07
-3.78316e+07
-3.76968e+07
-3.7575e+07
-3.74455e+07
-3.73211e+07
-3.71939e+07
-3.70681e+07
-3.69416e+07
-3.68155e+07
-3.66892e+07
-3.6563e+07
-3.64367e+07
-3.63106e+07
-3.61844e+07
-3.60584e+07
-3.59322e+07
-3.58063e+07
-3.56799e+07
-3.55545e+07
-3.54272e+07
-3.5303e+07
-3.51752e+07
-3.50527e+07
-3.49323e+07
-3.47952e+07
-3.46686e+07
-3.4542e+07
-3.44152e+07
-3.42894e+07
-3.41627e+07
-3.40365e+07
-3.391e+07
-3.37837e+07
-3.36573e+07
-3.35311e+07
-3.34048e+07
-3.32785e+07
-3.31522e+07
-3.3026e+07
-3.28997e+07
-3.27735e+07
-3.26472e+07
-3.2521e+07
-3.23947e+07
-3.22685e+07
-3.21422e+07
-3.20159e+07
-3.18895e+07
-3.17634e+07
-3.16366e+07
-3.15109e+07
-3.13829e+07
-3.12592e+07
-3.11289e+07
-3.101e+07
-3.09064e+07
-3.07129e+07
-3.05737e+07
-3.05048e+07
-3.0366e+07
-3.02421e+07
-3.01219e+07
-2.99969e+07
-2.98696e+07
-2.97437e+07
-2.96164e+07
-2.94902e+07
-2.93635e+07
-2.92372e+07
-2.91108e+07
-2.89843e+07
-2.88582e+07
-2.87314e+07
-2.86056e+07
-2.84791e+07
-2.83527e+07
-2.82305e+07
-2.81007e+07
-2.79762e+07
-2.78506e+07
-2.77237e+07
-2.75982e+07
-2.74714e+07
-2.73454e+07
-2.7219e+07
-2.70929e+07
-2.69665e+07
-2.68404e+07
-2.6714e+07
-2.65878e+07
-2.64615e+07
-2.63351e+07
-2.62088e+07
-2.60825e+07
-2.59562e+07
-2.58299e+07
-2.57037e+07
-2.55774e+07
-2.54512e+07
-2.53249e+07
-2.51987e+07
-2.50725e+07
-2.49463e+07
-2.48201e+07
-2.46939e+07
-2.45677e+07
-2.44414e+07
-2.43152e+07
-2.41889e+07
-2.40627e+07
-2.39364e+07
-2.38102e+07
-2.36839e+07
-2.35577e+07
-2.34314e+07
-2.33052e+07
-2.3179e+07
-2.30527e+07
-2.29265e+07
-2.28003e+07
-2.26741e+07
-2.25479e+07
-2.24217e+07
-2.22954e+07
-2.21692e+07
-2.20429e+07
-2.19169e+07
-2.17902e+07
-2.16646e+07
-2.15363e+07
-2.14123e+07
-2.12775e+07
-2.11607e+07
-2.10794e+07
-2.09174e+07
-2.07768e+07
-2.06576e+07
-2.05398e+07
-2.04189e+07
-2.02709e+07
-2.01481e+07
-2.00227e+07
-1.98958e+07
-1.97702e+07
-1.96434e+07
-1.95172e+07
-1.93907e+07
-1.92643e+07
-1.91379e+07
-1.90116e+07
-1.88852e+07
-1.87588e+07
-1.86324e+07
-1.8506e+07
-1.83795e+07
-1.82532e+07
-1.81267e+07
-1.80004e+07
-1.7874e+07
-1.77474e+07
-1.76213e+07
-1.74918e+07
-1.73666e+07
-1.72414e+07
-1.71147e+07
-1.69887e+07
-1.68623e+07
-1.67364e+07
-1.661e+07
-1.6484e+07
-1.63577e+07
-1.62315e+07
-1.61053e+07
-1.59791e+07
-1.58529e+07
-1.57268e+07
-1.56006e+07
-1.54744e+07
-1.53482e+07
-1.5222e+07
-1.50959e+07
-1.49697e+07
-1.48435e+07
-1.47174e+07
-1.45912e+07
-1.44651e+07
-1.43389e+07
-1.42127e+07
-1.40866e+07
-1.39604e+07
-1.38341e+07
-1.3708e+07
-1.35816e+07
-1.34556e+07
-1.3329e+07
-1.32033e+07
-1.30766e+07
-1.29512e+07
-1.28258e+07
-1.26971e+07
-1.2571e+07
-1.24444e+07
-1.2318e+07
-1.21918e+07
-1.20654e+07
-1.19392e+07
-1.18128e+07
-1.16865e+07
-1.15602e+07
-1.14339e+07
-1.13076e+07
-1.11813e+07
-1.1055e+07
-1.09287e+07
-1.08024e+07
-1.06762e+07
-1.05498e+07
-1.04235e+07
-1.02972e+07
-1.01709e+07
-1.00446e+07
-9.91823e+06
-9.79185e+06
-9.66544e+06
-9.53907e+06
-9.41269e+06
-9.28636e+06
-9.15999e+06
-9.03363e+06
-8.90728e+06
-8.78092e+06
-8.65451e+06
-8.52811e+06
-8.40166e+06
-8.27524e+06
-8.14878e+06
-8.02237e+06
-7.89597e+06
-7.7695e+06
-7.64327e+06
-7.51683e+06
-7.39046e+06
-7.26408e+06
-7.13769e+06
-7.01137e+06
-6.88501e+06
-6.75867e+06
-6.63234e+06
-6.50602e+06
-6.37973e+06
-6.25339e+06
-6.12709e+06
-6.00075e+06
-5.87445e+06
-5.7481e+06
-5.62175e+06
-5.49542e+06
-5.36906e+06
-5.24272e+06
-5.11634e+06
-4.98997e+06
-4.8636e+06
-4.73726e+06
-4.61089e+06
-4.48456e+06
-4.35822e+06
-4.23188e+06
-4.10555e+06
-3.97917e+06
-3.85283e+06
-3.72646e+06
-3.60013e+06
-3.47374e+06
-3.3474e+06
-3.22098e+06
-3.09463e+06
-2.96815e+06
-2.8417e+06
-2.71559e+06
-2.58918e+06
-2.4629e+06
-2.33656e+06
-2.21031e+06
-2.08408e+06
-1.95798e+06
-1.83202e+06
-1.70618e+06
-1.58069e+06
-1.45547e+06
-1.33096e+06
-1.20705e+06
-1.0838e+06
-961249
-837811
-713988
-580601
-437472
-247905
-6635.95
419556
-4.61871e+07
-4.17814e+07
-3.96162e+07
-3.80143e+07
-3.72855e+07
-3.67686e+07
-3.65136e+07
-3.63193e+07
-3.61913e+07
-3.60749e+07
-3.59711e+07
-3.58657e+07
-3.57614e+07
-3.56518e+07
-3.55461e+07
-3.54261e+07
-3.53292e+07
-3.51792e+07
-3.50005e+07
-3.49649e+07
-3.48672e+07
-3.47355e+07
-3.46248e+07
-3.45044e+07
-3.43897e+07
-3.42725e+07
-3.41566e+07
-3.404e+07
-3.39238e+07
-3.38074e+07
-3.36911e+07
-3.35748e+07
-3.34586e+07
-3.33423e+07
-3.32261e+07
-3.31097e+07
-3.29937e+07
-3.2877e+07
-3.27616e+07
-3.26438e+07
-3.25307e+07
-3.24121e+07
-3.23039e+07
-3.21928e+07
-3.20599e+07
-3.19444e+07
-3.18278e+07
-3.1711e+07
-3.15956e+07
-3.1479e+07
-3.13629e+07
-3.12464e+07
-3.11301e+07
-3.10137e+07
-3.08974e+07
-3.0781e+07
-3.06647e+07
-3.05483e+07
-3.0432e+07
-3.03156e+07
-3.01993e+07
-3.0083e+07
-2.99666e+07
-2.98503e+07
-2.97339e+07
-2.96176e+07
-2.95012e+07
-2.93848e+07
-2.92685e+07
-2.91517e+07
-2.9036e+07
-2.89181e+07
-2.88051e+07
-2.86839e+07
-2.85807e+07
-2.84484e+07
-2.82674e+07
-2.82004e+07
-2.81153e+07
-2.79781e+07
-2.78637e+07
-2.77579e+07
-2.76418e+07
-2.75245e+07
-2.74084e+07
-2.72906e+07
-2.71742e+07
-2.70571e+07
-2.69407e+07
-2.68242e+07
-2.67075e+07
-2.65915e+07
-2.64741e+07
-2.63587e+07
-2.62413e+07
-2.61258e+07
-2.60165e+07
-2.58928e+07
-2.57788e+07
-2.56636e+07
-2.55461e+07
-2.54309e+07
-2.53137e+07
-2.51978e+07
-2.50811e+07
-2.49649e+07
-2.48483e+07
-2.4732e+07
-2.46154e+07
-2.44992e+07
-2.43828e+07
-2.42665e+07
-2.41502e+07
-2.40338e+07
-2.39175e+07
-2.38011e+07
-2.36848e+07
-2.35685e+07
-2.34521e+07
-2.33358e+07
-2.32195e+07
-2.31032e+07
-2.29869e+07
-2.28706e+07
-2.27543e+07
-2.2638e+07
-2.25217e+07
-2.24054e+07
-2.2289e+07
-2.21727e+07
-2.20564e+07
-2.194e+07
-2.18237e+07
-2.17073e+07
-2.1591e+07
-2.14747e+07
-2.13584e+07
-2.12421e+07
-2.11258e+07
-2.10095e+07
-2.08932e+07
-2.07769e+07
-2.06606e+07
-2.05442e+07
-2.0428e+07
-2.03116e+07
-2.01954e+07
-2.00787e+07
-1.99629e+07
-1.98446e+07
-1.97293e+07
-1.96073e+07
-1.94744e+07
-1.9407e+07
-1.9296e+07
-1.91455e+07
-1.90269e+07
-1.89244e+07
-1.88454e+07
-1.8683e+07
-1.85572e+07
-1.84496e+07
-1.83312e+07
-1.82171e+07
-1.81002e+07
-1.79842e+07
-1.78676e+07
-1.77512e+07
-1.76348e+07
-1.75183e+07
-1.74019e+07
-1.72855e+07
-1.7169e+07
-1.70526e+07
-1.69361e+07
-1.68198e+07
-1.67032e+07
-1.65872e+07
-1.64705e+07
-1.63539e+07
-1.62371e+07
-1.61149e+07
-1.60016e+07
-1.58872e+07
-1.57702e+07
-1.56543e+07
-1.55377e+07
-1.54218e+07
-1.53053e+07
-1.51893e+07
-1.50729e+07
-1.49567e+07
-1.48404e+07
-1.47241e+07
-1.46078e+07
-1.44916e+07
-1.43753e+07
-1.4259e+07
-1.41428e+07
-1.40265e+07
-1.39102e+07
-1.3794e+07
-1.36777e+07
-1.35615e+07
-1.34452e+07
-1.3329e+07
-1.32127e+07
-1.30964e+07
-1.29802e+07
-1.2864e+07
-1.27477e+07
-1.26315e+07
-1.25148e+07
-1.23987e+07
-1.22818e+07
-1.21662e+07
-1.20494e+07
-1.19347e+07
-1.18207e+07
-1.16999e+07
-1.15832e+07
-1.14667e+07
-1.13502e+07
-1.1234e+07
-1.11176e+07
-1.10013e+07
-1.08849e+07
-1.07686e+07
-1.06522e+07
-1.05358e+07
-1.04194e+07
-1.03031e+07
-1.01867e+07
-1.00703e+07
-9.95397e+06
-9.8376e+06
-9.7212e+06
-9.60482e+06
-9.48843e+06
-9.37205e+06
-9.25563e+06
-9.13918e+06
-9.02272e+06
-8.90624e+06
-8.78979e+06
-8.67334e+06
-8.55692e+06
-8.44048e+06
-8.32405e+06
-8.20762e+06
-8.09119e+06
-7.97471e+06
-7.85824e+06
-7.7417e+06
-7.62521e+06
-7.50863e+06
-7.39213e+06
-7.2756e+06
-7.15901e+06
-7.04285e+06
-6.92638e+06
-6.80999e+06
-6.69357e+06
-6.57711e+06
-6.46072e+06
-6.34427e+06
-6.22786e+06
-6.11144e+06
-5.99503e+06
-5.87866e+06
-5.76224e+06
-5.64586e+06
-5.52943e+06
-5.41304e+06
-5.29662e+06
-5.18019e+06
-5.06379e+06
-4.94736e+06
-4.83094e+06
-4.71451e+06
-4.59808e+06
-4.48164e+06
-4.36523e+06
-4.24877e+06
-4.13236e+06
-4.01592e+06
-3.89949e+06
-3.78308e+06
-3.66662e+06
-3.55021e+06
-3.43376e+06
-3.31737e+06
-3.2009e+06
-3.08449e+06
-2.96796e+06
-2.85157e+06
-2.73495e+06
-2.6183e+06
-2.50231e+06
-2.38589e+06
-2.26956e+06
-2.15314e+06
-2.03679e+06
-1.9205e+06
-1.80427e+06
-1.68819e+06
-1.5722e+06
-1.45647e+06
-1.34079e+06
-1.22572e+06
-1.11084e+06
-996039
-880955
-763329
-643339
-510878
-365757
-172550
62916.7
455570
-4.25659e+07
-3.86842e+07
-3.67227e+07
-3.51404e+07
-3.43443e+07
-3.37649e+07
-3.34526e+07
-3.32208e+07
-3.30685e+07
-3.29397e+07
-3.28313e+07
-3.27268e+07
-3.26267e+07
-3.25239e+07
-3.24241e+07
-3.2314e+07
-3.22145e+07
-3.20842e+07
-3.19714e+07
-3.1905e+07
-3.17949e+07
-3.16873e+07
-3.15836e+07
-3.14757e+07
-3.13708e+07
-3.12642e+07
-3.11584e+07
-3.10522e+07
-3.09461e+07
-3.084e+07
-3.07339e+07
-3.06278e+07
-3.05217e+07
-3.04156e+07
-3.03096e+07
-3.02033e+07
-3.00975e+07
-2.99907e+07
-2.98854e+07
-2.97769e+07
-2.96749e+07
-2.9564e+07
-2.94706e+07
-2.93836e+07
-2.92471e+07
-2.91371e+07
-2.90334e+07
-2.89259e+07
-2.88218e+07
-2.87154e+07
-2.86099e+07
-2.85036e+07
-2.83976e+07
-2.82915e+07
-2.81854e+07
-2.80792e+07
-2.79731e+07
-2.7867e+07
-2.77608e+07
-2.76547e+07
-2.75486e+07
-2.74425e+07
-2.73363e+07
-2.72302e+07
-2.71241e+07
-2.70179e+07
-2.69118e+07
-2.68055e+07
-2.66994e+07
-2.65929e+07
-2.64872e+07
-2.63799e+07
-2.62753e+07
-2.6167e+07
-2.60629e+07
-2.59594e+07
-2.58232e+07
-2.57199e+07
-2.56391e+07
-2.55183e+07
-2.54015e+07
-2.53198e+07
-2.52183e+07
-2.51091e+07
-2.50041e+07
-2.48956e+07
-2.47894e+07
-2.46821e+07
-2.45759e+07
-2.44697e+07
-2.4363e+07
-2.42574e+07
-2.41498e+07
-2.40448e+07
-2.3937e+07
-2.3831e+07
-2.37342e+07
-2.36186e+07
-2.35157e+07
-2.34122e+07
-2.33038e+07
-2.31994e+07
-2.3092e+07
-2.29864e+07
-2.28797e+07
-2.27737e+07
-2.26672e+07
-2.2561e+07
-2.24545e+07
-2.23485e+07
-2.22424e+07
-2.21363e+07
-2.20303e+07
-2.19242e+07
-2.18181e+07
-2.1712e+07
-2.16059e+07
-2.14998e+07
-2.13937e+07
-2.12875e+07
-2.11815e+07
-2.10754e+07
-2.09693e+07
-2.08632e+07
-2.07571e+07
-2.0651e+07
-2.05449e+07
-2.04388e+07
-2.03326e+07
-2.02265e+07
-2.01204e+07
-2.00142e+07
-1.99081e+07
-1.9802e+07
-1.96959e+07
-1.95898e+07
-1.94837e+07
-1.93776e+07
-1.92715e+07
-1.91654e+07
-1.90593e+07
-1.89532e+07
-1.88471e+07
-1.8741e+07
-1.86349e+07
-1.85287e+07
-1.84228e+07
-1.8316e+07
-1.82106e+07
-1.80999e+07
-1.79981e+07
-1.78508e+07
-1.77916e+07
-1.7402e+07
-1.75772e+07
-1.74285e+07
-1.73555e+07
-1.72832e+07
-1.71745e+07
-1.70191e+07
-1.69294e+07
-1.68291e+07
-1.67221e+07
-1.6618e+07
-1.65113e+07
-1.64056e+07
-1.62992e+07
-1.61931e+07
-1.60869e+07
-1.59807e+07
-1.58745e+07
-1.57683e+07
-1.5662e+07
-1.55559e+07
-1.54497e+07
-1.53437e+07
-1.52374e+07
-1.51318e+07
-1.50254e+07
-1.49191e+07
-1.48132e+07
-1.46985e+07
-1.4595e+07
-1.44927e+07
-1.43855e+07
-1.42799e+07
-1.41735e+07
-1.40682e+07
-1.39618e+07
-1.38562e+07
-1.375e+07
-1.3644e+07
-1.35378e+07
-1.34318e+07
-1.33257e+07
-1.32197e+07
-1.31136e+07
-1.30075e+07
-1.29015e+07
-1.27954e+07
-1.26893e+07
-1.25833e+07
-1.24772e+07
-1.23712e+07
-1.22651e+07
-1.2159e+07
-1.2053e+07
-1.1947e+07
-1.1841e+07
-1.1735e+07
-1.16289e+07
-1.1523e+07
-1.14163e+07
-1.13104e+07
-1.12035e+07
-1.10986e+07
-1.09916e+07
-1.08887e+07
-1.07846e+07
-1.06721e+07
-1.05661e+07
-1.04598e+07
-1.03535e+07
-1.02478e+07
-1.01416e+07
-1.00356e+07
-9.92946e+06
-9.82335e+06
-9.7172e+06
-9.61105e+06
-9.50487e+06
-9.39871e+06
-9.29255e+06
-9.18642e+06
-9.08026e+06
-8.9741e+06
-8.86791e+06
-8.76175e+06
-8.65558e+06
-8.54941e+06
-8.44321e+06
-8.33697e+06
-8.23073e+06
-8.12447e+06
-8.01824e+06
-7.91199e+06
-7.80579e+06
-7.69957e+06
-7.59336e+06
-7.48714e+06
-7.38094e+06
-7.2747e+06
-7.16846e+06
-7.06212e+06
-6.95587e+06
-6.84946e+06
-6.74317e+06
-6.63677e+06
-6.53031e+06
-6.42457e+06
-6.31838e+06
-6.21227e+06
-6.10611e+06
-5.99987e+06
-5.89369e+06
-5.78746e+06
-5.68126e+06
-5.57506e+06
-5.46885e+06
-5.36268e+06
-5.25648e+06
-5.15031e+06
-5.04409e+06
-4.93792e+06
-4.83172e+06
-4.7255e+06
-4.61931e+06
-4.51311e+06
-4.40692e+06
-4.30072e+06
-4.19453e+06
-4.08832e+06
-3.98214e+06
-3.87588e+06
-3.76968e+06
-3.66345e+06
-3.55721e+06
-3.45102e+06
-3.34479e+06
-3.2386e+06
-3.13237e+06
-3.02621e+06
-2.91995e+06
-2.81377e+06
-2.70739e+06
-2.60125e+06
-2.49475e+06
-2.3883e+06
-2.28274e+06
-2.17654e+06
-2.07048e+06
-1.96428e+06
-1.85813e+06
-1.75204e+06
-1.64598e+06
-1.54005e+06
-1.43416e+06
-1.32849e+06
-1.22259e+06
-1.1172e+06
-1.01175e+06
-905818
-798605
-687597
-572640
-443402
-299890
-109810
114009
468859
-3.8807e+07
-3.54085e+07
-3.3676e+07
-3.21607e+07
-3.13536e+07
-3.07479e+07
-3.0404e+07
-3.015e+07
-2.99826e+07
-2.98466e+07
-2.97363e+07
-2.96343e+07
-2.95392e+07
-2.94435e+07
-2.93517e+07
-2.92522e+07
-2.91612e+07
-2.90516e+07
-2.89363e+07
-2.88718e+07
-2.87808e+07
-2.86832e+07
-2.85899e+07
-2.84924e+07
-2.83975e+07
-2.8301e+07
-2.82053e+07
-2.81091e+07
-2.80131e+07
-2.79171e+07
-2.7821e+07
-2.7725e+07
-2.7629e+07
-2.75329e+07
-2.74369e+07
-2.73406e+07
-2.72447e+07
-2.71478e+07
-2.70527e+07
-2.69538e+07
-2.68635e+07
-2.67613e+07
-2.66891e+07
-2.66006e+07
-2.64653e+07
-2.63735e+07
-2.628e+07
-2.61833e+07
-2.60897e+07
-2.59934e+07
-2.58981e+07
-2.5802e+07
-2.57061e+07
-2.561e+07
-2.5514e+07
-2.54179e+07
-2.53219e+07
-2.52258e+07
-2.51298e+07
-2.50337e+07
-2.49376e+07
-2.48416e+07
-2.47455e+07
-2.46494e+07
-2.45533e+07
-2.44572e+07
-2.43611e+07
-2.42649e+07
-2.41689e+07
-2.40725e+07
-2.39768e+07
-2.38797e+07
-2.3785e+07
-2.36865e+07
-2.35926e+07
-2.34918e+07
-2.33726e+07
-2.32883e+07
-2.32096e+07
-2.30902e+07
-2.29921e+07
-2.29286e+07
-2.28299e+07
-2.27309e+07
-2.26353e+07
-2.25364e+07
-2.24403e+07
-2.23427e+07
-2.22465e+07
-2.21504e+07
-2.20537e+07
-2.19583e+07
-2.18599e+07
-2.1766e+07
-2.16653e+07
-2.15734e+07
-2.14945e+07
-2.13781e+07
-2.12864e+07
-2.11939e+07
-2.10948e+07
-2.10012e+07
-2.09034e+07
-2.0808e+07
-2.07113e+07
-2.06153e+07
-2.05187e+07
-2.04226e+07
-2.03259e+07
-2.023e+07
-2.01341e+07
-2.00381e+07
-1.99423e+07
-1.98462e+07
-1.97503e+07
-1.96542e+07
-1.95582e+07
-1.94621e+07
-1.93661e+07
-1.927e+07
-1.9174e+07
-1.90779e+07
-1.89819e+07
-1.88858e+07
-1.87898e+07
-1.86938e+07
-1.85977e+07
-1.85016e+07
-1.84056e+07
-1.83095e+07
-1.82134e+07
-1.81174e+07
-1.80213e+07
-1.79252e+07
-1.78292e+07
-1.77331e+07
-1.76371e+07
-1.7541e+07
-1.7445e+07
-1.7349e+07
-1.72529e+07
-1.71569e+07
-1.70608e+07
-1.69648e+07
-1.68688e+07
-1.67726e+07
-1.66768e+07
-1.65802e+07
-1.6485e+07
-1.63867e+07
-1.62953e+07
-1.6191e+07
-1.61332e+07
-1.60301e+07
-1.58794e+07
-1.58035e+07
-1.56725e+07
-1.56224e+07
-1.52496e+07
-1.54324e+07
-1.52899e+07
-1.52346e+07
-1.51343e+07
-1.50429e+07
-1.49461e+07
-1.48507e+07
-1.47544e+07
-1.46584e+07
-1.45622e+07
-1.44661e+07
-1.437e+07
-1.42739e+07
-1.41777e+07
-1.40817e+07
-1.39856e+07
-1.38898e+07
-1.37936e+07
-1.36986e+07
-1.36018e+07
-1.3507e+07
-1.34088e+07
-1.32975e+07
-1.32108e+07
-1.31207e+07
-1.30222e+07
-1.29265e+07
-1.28299e+07
-1.27349e+07
-1.26385e+07
-1.25431e+07
-1.24468e+07
-1.2351e+07
-1.22549e+07
-1.21589e+07
-1.20628e+07
-1.19668e+07
-1.18708e+07
-1.17748e+07
-1.16788e+07
-1.15828e+07
-1.14868e+07
-1.13908e+07
-1.12948e+07
-1.11987e+07
-1.11027e+07
-1.10067e+07
-1.09108e+07
-1.08147e+07
-1.07189e+07
-1.06229e+07
-1.0527e+07
-1.04312e+07
-1.03342e+07
-1.02383e+07
-1.01411e+07
-1.00465e+07
-9.94867e+06
-9.8574e+06
-9.76845e+06
-9.66101e+06
-9.56342e+06
-9.4682e+06
-9.37164e+06
-9.27634e+06
-9.1802e+06
-9.08439e+06
-8.98832e+06
-8.8923e+06
-8.79622e+06
-8.70014e+06
-8.60403e+06
-8.50794e+06
-8.41184e+06
-8.31576e+06
-8.21966e+06
-8.12356e+06
-8.02744e+06
-7.93134e+06
-7.83523e+06
-7.73912e+06
-7.64298e+06
-7.5468e+06
-7.45062e+06
-7.35442e+06
-7.25826e+06
-7.16206e+06
-7.06592e+06
-6.96977e+06
-6.87363e+06
-6.77748e+06
-6.68136e+06
-6.58518e+06
-6.48903e+06
-6.39275e+06
-6.29658e+06
-6.20016e+06
-6.10395e+06
-6.00749e+06
-5.91101e+06
-5.81561e+06
-5.71951e+06
-5.62354e+06
-5.52747e+06
-5.43128e+06
-5.33517e+06
-5.23899e+06
-5.14285e+06
-5.04671e+06
-4.95056e+06
-4.85445e+06
-4.7583e+06
-4.66219e+06
-4.56604e+06
-4.46992e+06
-4.37378e+06
-4.27763e+06
-4.18151e+06
-4.08539e+06
-3.98927e+06
-3.89315e+06
-3.79703e+06
-3.70091e+06
-3.60481e+06
-3.50858e+06
-3.41244e+06
-3.31626e+06
-3.22008e+06
-3.12394e+06
-3.02778e+06
-2.93166e+06
-2.8355e+06
-2.73941e+06
-2.64322e+06
-2.54715e+06
-2.45076e+06
-2.35473e+06
-2.25819e+06
-2.16152e+06
-2.06643e+06
-1.97037e+06
-1.87435e+06
-1.77826e+06
-1.68212e+06
-1.58606e+06
-1.49005e+06
-1.39413e+06
-1.29818e+06
-1.20236e+06
-1.10605e+06
-1.01038e+06
-914299
-817317
-718415
-614841
-506385
-382989
-245270
-64057.1
143124
461243
-3.4864e+07
-3.19498e+07
-3.04413e+07
-2.90415e+07
-2.82591e+07
-2.76567e+07
-2.73005e+07
-2.7037e+07
-2.68621e+07
-2.67235e+07
-2.6614e+07
-2.65159e+07
-2.64266e+07
-2.63385e+07
-2.62542e+07
-2.61648e+07
-2.60806e+07
-2.59855e+07
-2.58942e+07
-2.58264e+07
-2.57408e+07
-2.56562e+07
-2.55719e+07
-2.54855e+07
-2.54005e+07
-2.53143e+07
-2.52287e+07
-2.51428e+07
-2.5057e+07
-2.4971e+07
-2.48851e+07
-2.47992e+07
-2.47133e+07
-2.46273e+07
-2.45414e+07
-2.44551e+07
-2.43693e+07
-2.42821e+07
-2.41971e+07
-2.41062e+07
-2.40266e+07
-2.39226e+07