/*--------------------------------*- C++ -*----------------------------------*\
| =========                 |                                                 |
| \\      /  F ield         | foam-extend: Open Source CFD                    |
|  \\    /   O peration     | Version:     4.0                                |
|   \\  /    A nd           | Web:         http://www.foam-extend.org         |
|    \\/     M anipulation  |                                                 |
\*---------------------------------------------------------------------------*/
FoamFile
{
    version     2.0;
    format      ascii;
    class       regIOobject;
    location    "1/uniform";
    object      profilingInfo;
}
// * * * * * * * * * * * * * * * * * * * * * * * * * * * * * * * * * * * * * //

profilingInfo
(

    {
        id              8;
        parentId        7;
        description     "Foam::Time::writeObject - outputTime";
        calls           1;
        totalTime       0.007899;
        childTime       0;
        onStack         1;
    }

    {
        id              7;
        parentId        1;
        description     "Foam::Time::writeObject";
        calls           1;
        totalTime       0.008031;
        childTime       0.007899;
        onStack         1;
    }

    {
        id              1;
        description     "application::main";
        calls           1;
        totalTime       10.3386;
        childTime       4.32268;
        onStack         1;
    }

    {
        id              3;
        parentId        2;
        description     "functionObjectList::read";
        calls           1;
        totalTime       6e-06;
        childTime       0;
        onStack         0;
    }

    {
        id              2;
        parentId        1;
        description     "functionObjects_.start()";
        calls           1;
        totalTime       2.5e-05;
        childTime       6e-06;
        onStack         0;
    }

    {
        id              4;
        parentId        1;
        description     "fvMatrix::solve_D";
        calls           29423;
        totalTime       4.31463;
        childTime       3.07438;
        onStack         0;
    }

    {
        id              5;
        parentId        4;
        description     "lduMatrix::solver_Dx";
        calls           29423;
        totalTime       0.499462;
        childTime       0;
        onStack         0;
    }

    {
        id              6;
        parentId        4;
        description     "lduMatrix::solver_Dy";
        calls           29423;
        totalTime       2.57492;
        childTime       0;
        onStack         0;
    }
);


// ************************************************************************* //
